<?xml version="1.0" encoding="UTF-8"?>

<!-- generated on 2026-02-07T00:47:36.121477+07:00 by Eclipse SUMO sumo v1_25_0+0904-59bbc76848e
<sumoConfiguration xmlns:xsi="http://www.w3.org/2001/XMLSchema-instance" xsi:noNamespaceSchemaLocation="http://sumo.dlr.de/xsd/sumoConfiguration.xsd">

    <input>
        <net-file value="maps/NinhKieuBridge/osm.net.xml.gz"/>
        <route-files value="maps/NinhKieuBridge/osm_pt.rou.xml,maps/NinhKieuBridge/osm.bicycle.trips.xml,maps/NinhKieuBridge/osm.motorcycle.trips.xml,maps/NinhKieuBridge/osm.passenger.trips.xml,maps/NinhKieuBridge/osm.pedestrian.rou.xml"/>
        <additional-files value="maps/NinhKieuBridge/osm.poly.xml.gz,maps/NinhKieuBridge/osm_stops.add.xml,maps/NinhKieuBridge/output.add.xml"/>
    </input>

    <output>
        <tripinfo-output value="maps/NinhKieuBridge/tripinfos.xml"/>
        <stop-output value="maps/NinhKieuBridge/stopinfos.xml"/>
        <statistic-output value="maps/NinhKieuBridge/stats.xml"/>
    </output>

    <processing>
        <ignore-route-errors value="true"/>
        <scale value="7.0"/>
        <tls.actuated.jam-threshold value="30"/>
    </processing>

    <routing>
        <device.rerouting.adaptation-steps value="18"/>
        <device.rerouting.adaptation-interval value="10"/>
    </routing>

    <report>
        <verbose value="true"/>
        <no-warnings value="true"/>
        <no-step-log value="true"/>
    </report>

    <emissions>
        <device.emissions.probability value="1.0"/>
    </emissions>

    <traci_server>
        <remote-port value="39343"/>
    </traci_server>

    <gui_only>
        <gui-settings-file value="maps/NinhKieuBridge/osm.view.xml"/>
        <quit-on-end value="true"/>
        <start value="true"/>
        <delay value="20"/>
    </gui_only>

</sumoConfiguration>
-->

<meandata xmlns:xsi="http://www.w3.org/2001/XMLSchema-instance" xsi:noNamespaceSchemaLocation="http://sumo.dlr.de/xsd/meandata_file.xsd">
    <interval begin="0.00" end="297.00" id="wizard_example">
        <edge id="-1043618989" sampledSeconds="0.00" departed="0" arrived="0" entered="0" left="0" laneChangedFrom="0" laneChangedTo="0"/>
        <edge id="-1062498629#0" sampledSeconds="187.67" traveltime="24.99" overlapTraveltime="25.35" density="1.92" overlapDensity="1.94" laneDensity="1.92" occupancy="0.96" waitingTime="0.00" timeLoss="23.21" speed="13.02" speedRelative="0.94" departed="0" arrived="7" entered="8" left="0" laneChangedFrom="0" laneChangedTo="0" flow="89.89"/>
        <edge id="-1062498629#1" sampledSeconds="47.50" traveltime="1.59" overlapTraveltime="2.14" density="14.36" overlapDensity="20.45" laneDensity="14.36" occupancy="3.55" waitingTime="0.00" timeLoss="19.10" speed="4.75" speedRelative="0.34" departed="0" arrived="0" entered="21" left="21" laneChangedFrom="0" laneChangedTo="0" flow="254.55"/>
        <edge id="-1062498629#10" sampledSeconds="17.58" traveltime="2.26" overlapTraveltime="2.78" density="2.82" overlapDensity="3.14" laneDensity="2.82" occupancy="1.27" waitingTime="0.00" timeLoss="6.47" speed="8.59" speedRelative="0.62" departed="0" arrived="7" entered="7" left="0" laneChangedFrom="0" laneChangedTo="0" flow="84.85"/>
        <edge id="-1062498629#2" sampledSeconds="1343.28" traveltime="38.02" overlapTraveltime="38.30" density="19.26" overlapDensity="19.45" laneDensity="19.26" occupancy="4.64" waitingTime="2.00" timeLoss="388.23" speed="6.14" speedRelative="0.44" departed="0" arrived="14" entered="35" left="21" laneChangedFrom="0" laneChangedTo="0" flow="424.24"/>
        <edge id="-1062498629#3" sampledSeconds="50.97" traveltime="0.95" overlapTraveltime="1.48" density="32.95" overlapDensity="57.21" laneDensity="32.95" occupancy="8.24" waitingTime="1.00" timeLoss="30.78" speed="3.94" speedRelative="0.28" departed="7" arrived="0" entered="28" left="35" laneChangedFrom="0" laneChangedTo="0" flow="376.16"/>
        <edge id="-1062498629#5" sampledSeconds="107.02" traveltime="14.45" overlapTraveltime="15.29" density="1.84" overlapDensity="1.95" laneDensity="1.84" occupancy="0.94" waitingTime="0.00" timeLoss="12.74" speed="12.43" speedRelative="0.89" departed="0" arrived="0" entered="7" left="7" laneChangedFrom="0" laneChangedTo="0" flow="84.85"/>
        <edge id="-1062498629#6" sampledSeconds="46.09" traveltime="7.01" overlapTraveltime="7.36" density="3.37" overlapDensity="3.59" laneDensity="3.37" occupancy="1.74" waitingTime="1.00" timeLoss="25.30" speed="6.55" speedRelative="0.47" departed="7" arrived="0" entered="0" left="7" laneChangedFrom="0" laneChangedTo="0" flow="74.85"/>
        <edge id="-1062498629#7" sampledSeconds="0.00" departed="0" arrived="0" entered="0" left="0" laneChangedFrom="0" laneChangedTo="0"/>
        <edge id="-1062498629#8" sampledSeconds="0.00" departed="0" arrived="0" entered="0" left="0" laneChangedFrom="0" laneChangedTo="0"/>
        <edge id="-1062498629#9" sampledSeconds="0.00" departed="0" arrived="0" entered="0" left="0" laneChangedFrom="0" laneChangedTo="0"/>
        <edge id="-1150062811#0" sampledSeconds="1753.59" traveltime="77.64" overlapTraveltime="79.90" density="57.06" overlapDensity="57.91" laneDensity="57.06" occupancy="23.46" waitingTime="236.00" timeLoss="938.47" speed="1.33" speedRelative="0.48" departed="0" arrived="0" entered="28" left="16" laneChangedFrom="0" laneChangedTo="0" flow="269.75"/>
        <edge id="-1150062811#1" sampledSeconds="759.36" traveltime="78.36" overlapTraveltime="82.38" density="21.23" overlapDensity="22.04" laneDensity="21.23" occupancy="10.59" waitingTime="95.00" timeLoss="364.01" speed="1.47" speedRelative="0.53" departed="0" arrived="0" entered="13" left="7" laneChangedFrom="0" laneChangedTo="0" flow="113.14"/>
        <edge id="-1150062811#2" sampledSeconds="102.60" traveltime="12.22" overlapTraveltime="14.66" density="11.32" overlapDensity="13.58" laneDensity="11.32" occupancy="5.62" waitingTime="0.00" timeLoss="24.57" speed="2.08" speedRelative="0.75" departed="0" arrived="0" entered="7" left="7" laneChangedFrom="0" laneChangedTo="0" flow="84.85"/>
        <edge id="-1150062812#0" sampledSeconds="712.35" traveltime="100.34" overlapTraveltime="104.43" density="11.82" overlapDensity="12.31" laneDensity="11.82" occupancy="6.05" waitingTime="5.00" timeLoss="229.88" speed="1.91" speedRelative="0.69" departed="7" arrived="0" entered="0" left="7" laneChangedFrom="0" laneChangedTo="0" flow="82.63"/>
        <edge id="-1150062812#1" sampledSeconds="368.40" traveltime="52.48" overlapTraveltime="53.93" density="12.98" overlapDensity="13.35" laneDensity="12.98" occupancy="2.90" waitingTime="0.00" timeLoss="127.87" speed="1.76" speedRelative="0.63" departed="7" arrived="0" entered="0" left="7" laneChangedFrom="0" laneChangedTo="0" flow="82.75"/>
        <edge id="-1150062813" sampledSeconds="998.24" traveltime="47.57" overlapTraveltime="49.81" density="40.81" overlapDensity="42.67" laneDensity="40.81" occupancy="17.01" waitingTime="22.00" timeLoss="402.30" speed="1.66" speedRelative="0.60" departed="14" arrived="0" entered="7" left="20" laneChangedFrom="0" laneChangedTo="0" flow="243.20"/>
        <edge id="-1193997327#0" sampledSeconds="88.71" traveltime="7.20" overlapTraveltime="7.70" density="10.87" overlapDensity="11.59" laneDensity="10.87" occupancy="1.77" waitingTime="0.00" timeLoss="30.17" speed="3.55" speedRelative="0.64" departed="7" arrived="0" entered="7" left="11" laneChangedFrom="0" laneChangedTo="0" flow="139.99"/>
        <edge id="-1193997327#2" sampledSeconds="62.93" traveltime="8.67" overlapTraveltime="8.99" density="4.91" overlapDensity="5.09" laneDensity="4.91" occupancy="0.78" waitingTime="0.00" timeLoss="8.06" speed="4.81" speedRelative="0.86" departed="0" arrived="0" entered="7" left="7" laneChangedFrom="0" laneChangedTo="0" flow="84.85"/>
        <edge id="-1193997327#3" sampledSeconds="0.00" departed="0" arrived="0" entered="0" left="0" laneChangedFrom="0" laneChangedTo="0"/>
        <edge id="-1193997327#4" sampledSeconds="0.00" departed="0" arrived="0" entered="0" left="0" laneChangedFrom="0" laneChangedTo="0"/>
        <edge id="-1193997328#0" sampledSeconds="0.00" departed="0" arrived="0" entered="0" left="0" laneChangedFrom="0" laneChangedTo="0"/>
        <edge id="-1193997328#1" sampledSeconds="0.00" departed="0" arrived="0" entered="0" left="0" laneChangedFrom="0" laneChangedTo="0"/>
        <edge id="-1193997328#2" sampledSeconds="0.00" departed="0" arrived="0" entered="0" left="0" laneChangedFrom="0" laneChangedTo="0"/>
        <edge id="-1193997329" sampledSeconds="0.00" departed="0" arrived="0" entered="0" left="0" laneChangedFrom="0" laneChangedTo="0"/>
        <edge id="-1211918059#0" sampledSeconds="0.00" departed="0" arrived="0" entered="0" left="0" laneChangedFrom="0" laneChangedTo="0"/>
        <edge id="-1211918059#1" sampledSeconds="0.00" departed="0" arrived="0" entered="0" left="0" laneChangedFrom="0" laneChangedTo="0"/>
        <edge id="-1211928057#0" sampledSeconds="126.08" traveltime="17.32" overlapTraveltime="18.01" density="14.97" overlapDensity="15.57" laneDensity="14.97" occupancy="2.41" waitingTime="59.00" timeLoss="90.13" speed="1.60" speedRelative="0.29" departed="0" arrived="0" entered="7" left="7" laneChangedFrom="0" laneChangedTo="0" flow="84.85"/>
        <edge id="-1211928057#1" sampledSeconds="0.00" departed="0" arrived="0" entered="0" left="0" laneChangedFrom="0" laneChangedTo="0"/>
        <edge id="-1211928058#0" sampledSeconds="0.00" departed="0" arrived="0" entered="0" left="0" laneChangedFrom="0" laneChangedTo="0"/>
        <edge id="-1211928058#1" sampledSeconds="0.00" departed="0" arrived="0" entered="0" left="0" laneChangedFrom="0" laneChangedTo="0"/>
        <edge id="-1211988156" sampledSeconds="0.00" departed="0" arrived="0" entered="0" left="0" laneChangedFrom="0" laneChangedTo="0"/>
        <edge id="-1284876490#0" sampledSeconds="89.23" traveltime="5.95" overlapTraveltime="6.37" density="3.62" overlapDensity="3.88" laneDensity="3.62" occupancy="1.82" waitingTime="0.00" timeLoss="9.60" speed="12.94" speedRelative="0.93" departed="0" arrived="0" entered="14" left="14" laneChangedFrom="0" laneChangedTo="0" flow="169.70"/>
        <edge id="-1284876490#1" sampledSeconds="54.95" traveltime="3.54" overlapTraveltime="3.92" density="4.82" overlapDensity="5.34" laneDensity="4.82" occupancy="2.29" waitingTime="0.00" timeLoss="16.67" speed="10.10" speedRelative="0.73" departed="0" arrived="0" entered="14" left="14" laneChangedFrom="0" laneChangedTo="0" flow="169.70"/>
        <edge id="-1320722753#0" sampledSeconds="68.76" traveltime="9.50" overlapTraveltime="9.82" density="4.93" overlapDensity="5.10" laneDensity="4.93" occupancy="0.79" waitingTime="0.00" timeLoss="11.22" speed="4.79" speedRelative="0.86" departed="0" arrived="0" entered="7" left="7" laneChangedFrom="0" laneChangedTo="0" flow="84.85"/>
        <edge id="-1320722753#1" sampledSeconds="14.37" traveltime="1.72" overlapTraveltime="2.05" density="5.58" overlapDensity="6.67" laneDensity="5.58" occupancy="0.88" waitingTime="0.00" timeLoss="3.54" speed="4.31" speedRelative="0.78" departed="0" arrived="0" entered="7" left="7" laneChangedFrom="0" laneChangedTo="0" flow="84.85"/>
        <edge id="-1351702507#0" sampledSeconds="0.00" departed="0" arrived="0" entered="0" left="0" laneChangedFrom="0" laneChangedTo="0"/>
        <edge id="-1351702507#1" sampledSeconds="0.00" departed="0" arrived="0" entered="0" left="0" laneChangedFrom="0" laneChangedTo="0"/>
        <edge id="-1351702507#2" sampledSeconds="0.00" departed="0" arrived="0" entered="0" left="0" laneChangedFrom="0" laneChangedTo="0"/>
        <edge id="-1351702507#3" sampledSeconds="0.00" departed="0" arrived="0" entered="0" left="0" laneChangedFrom="0" laneChangedTo="0"/>
        <edge id="-166333704#0" sampledSeconds="79.68" traveltime="6.29" overlapTraveltime="6.47" density="18.35" overlapDensity="20.65" laneDensity="18.35" occupancy="5.60" waitingTime="28.00" timeLoss="62.94" speed="2.47" speedRelative="0.18" departed="7" arrived="0" entered="7" left="14" laneChangedFrom="0" laneChangedTo="0" flow="136.38"/>
        <edge id="-166333704#1" sampledSeconds="88.57" traveltime="12.33" overlapTraveltime="12.65" density="2.67" overlapDensity="2.74" laneDensity="2.67" occupancy="0.59" waitingTime="1.00" timeLoss="27.43" speed="8.78" speedRelative="0.63" departed="0" arrived="0" entered="7" left="7" laneChangedFrom="0" laneChangedTo="0" flow="84.85"/>
        <edge id="-166333704#2" sampledSeconds="7.78" traveltime="0.87" overlapTraveltime="1.11" density="3.58" overlapDensity="4.59" laneDensity="3.58" occupancy="0.70" waitingTime="0.00" timeLoss="3.43" speed="7.12" speedRelative="0.51" departed="0" arrived="0" entered="7" left="7" laneChangedFrom="0" laneChangedTo="0" flow="84.85"/>
        <edge id="-43140826#0" sampledSeconds="339.20" traveltime="27.55" overlapTraveltime="28.73" density="5.20" overlapDensity="5.38" laneDensity="5.20" occupancy="2.43" waitingTime="0.00" timeLoss="133.35" speed="7.55" speedRelative="0.54" departed="0" arrived="0" entered="15" left="7" laneChangedFrom="0" laneChangedTo="0" flow="144.24"/>
        <edge id="-43140826#1" sampledSeconds="252.55" traveltime="14.57" overlapTraveltime="15.13" density="8.86" overlapDensity="9.21" laneDensity="8.86" occupancy="3.78" waitingTime="0.00" timeLoss="106.60" speed="6.38" speedRelative="0.46" departed="7" arrived="0" entered="11" left="16" laneChangedFrom="0" laneChangedTo="0" flow="202.08"/>
        <edge id="-43140826#2" sampledSeconds="583.23" traveltime="20.27" overlapTraveltime="22.30" density="14.73" overlapDensity="16.21" laneDensity="14.73" occupancy="4.79" waitingTime="48.00" timeLoss="193.05" speed="5.58" speedRelative="0.40" departed="0" arrived="0" entered="30" left="25" laneChangedFrom="0" laneChangedTo="0" flow="316.83"/>
        <edge id="-43140831#0" sampledSeconds="0.00" departed="0" arrived="0" entered="0" left="0" laneChangedFrom="0" laneChangedTo="0"/>
        <edge id="-43140831#1" sampledSeconds="177.10" traveltime="23.08" overlapTraveltime="23.40" density="5.52" overlapDensity="5.57" laneDensity="5.52" occupancy="0.88" waitingTime="0.00" timeLoss="28.33" speed="4.64" speedRelative="0.33" departed="0" arrived="7" entered="10" left="0" laneChangedFrom="0" laneChangedTo="0" flow="92.09"/>
        <edge id="-43140831#2" sampledSeconds="367.15" traveltime="13.54" overlapTraveltime="14.26" density="50.84" overlapDensity="53.21" laneDensity="50.84" occupancy="11.37" waitingTime="160.00" timeLoss="260.02" speed="1.79" speedRelative="0.13" departed="6" arrived="0" entered="22" left="26" laneChangedFrom="0" laneChangedTo="0" teleported="1" flow="314.00"/>
        <edge id="-43140831#3" sampledSeconds="231.38" traveltime="10.20" overlapTraveltime="10.49" density="14.53" overlapDensity="14.98" laneDensity="14.53" occupancy="2.36" waitingTime="0.00" timeLoss="26.56" speed="5.11" speedRelative="0.37" departed="0" arrived="0" entered="22" left="22" laneChangedFrom="0" laneChangedTo="0" flow="266.67"/>
        <edge id="-43140831#4" sampledSeconds="313.64" traveltime="13.94" overlapTraveltime="14.23" density="14.51" overlapDensity="14.84" laneDensity="14.51" occupancy="2.36" waitingTime="0.00" timeLoss="35.33" speed="5.12" speedRelative="0.37" departed="0" arrived="0" entered="22" left="22" laneChangedFrom="0" laneChangedTo="0" flow="266.67"/>
        <edge id="-43140831#5" sampledSeconds="377.29" traveltime="16.94" overlapTraveltime="17.23" density="14.63" overlapDensity="14.90" laneDensity="14.63" occupancy="2.39" waitingTime="0.00" timeLoss="46.95" speed="5.04" speedRelative="0.36" departed="7" arrived="0" entered="15" left="22" laneChangedFrom="0" laneChangedTo="0" flow="264.98"/>
        <edge id="-43140831#6" sampledSeconds="69.00" traveltime="4.30" overlapTraveltime="4.57" density="9.18" overlapDensity="9.82" laneDensity="9.18" occupancy="1.51" waitingTime="0.00" timeLoss="4.38" speed="5.54" speedRelative="0.40" departed="0" arrived="0" entered="15" left="15" laneChangedFrom="0" laneChangedTo="0" flow="181.81"/>
        <edge id="-443405652#0" sampledSeconds="285.39" traveltime="14.82" overlapTraveltime="15.12" density="11.61" overlapDensity="11.81" laneDensity="11.61" occupancy="1.98" waitingTime="0.00" timeLoss="50.86" speed="5.50" speedRelative="0.40" departed="0" arrived="0" entered="22" left="16" laneChangedFrom="0" laneChangedTo="0" flow="229.60"/>
        <edge id="-443405652#1" sampledSeconds="62.81" traveltime="8.57" overlapTraveltime="8.97" density="2.34" overlapDensity="2.45" laneDensity="2.34" occupancy="0.51" waitingTime="0.00" timeLoss="16.42" speed="9.88" speedRelative="0.71" departed="0" arrived="0" entered="7" left="7" laneChangedFrom="0" laneChangedTo="0" flow="84.85"/>
        <edge id="-443842819#0" sampledSeconds="0.00" departed="0" arrived="0" entered="0" left="0" laneChangedFrom="0" laneChangedTo="0"/>
        <edge id="-443842819#1" sampledSeconds="0.00" departed="0" arrived="0" entered="0" left="0" laneChangedFrom="0" laneChangedTo="0"/>
        <edge id="-443842820" sampledSeconds="274.41" traveltime="38.91" overlapTraveltime="39.20" density="4.43" overlapDensity="4.47" laneDensity="4.43" occupancy="0.71" waitingTime="0.00" timeLoss="19.00" speed="5.32" speedRelative="0.38" departed="0" arrived="0" entered="7" left="7" laneChangedFrom="0" laneChangedTo="0" flow="84.85"/>
        <edge id="-443842821#0" sampledSeconds="0.00" departed="0" arrived="0" entered="0" left="0" laneChangedFrom="0" laneChangedTo="0"/>
        <edge id="-443842821#1" sampledSeconds="0.00" departed="0" arrived="0" entered="0" left="0" laneChangedFrom="0" laneChangedTo="0"/>
        <edge id="-696616385" sampledSeconds="0.00" departed="0" arrived="0" entered="0" left="0" laneChangedFrom="0" laneChangedTo="0"/>
        <edge id="-696616468" sampledSeconds="0.00" departed="0" arrived="0" entered="0" left="0" laneChangedFrom="0" laneChangedTo="0"/>
        <edge id="-877366030#0" sampledSeconds="37.39" traveltime="6.47" overlapTraveltime="7.73" density="38.60" overlapDensity="44.64" laneDensity="38.60" occupancy="6.57" waitingTime="26.00" timeLoss="33.69" speed="0.57" speedRelative="0.10" departed="0" arrived="0" entered="5" left="5" laneChangedFrom="0" laneChangedTo="0" flow="60.61"/>
        <edge id="-877366030#1" sampledSeconds="294.06" traveltime="42.22" overlapTraveltime="42.88" density="8.80" overlapDensity="8.92" laneDensity="8.80" occupancy="1.42" waitingTime="94.00" timeLoss="155.43" speed="2.63" speedRelative="0.47" departed="7" arrived="0" entered="0" left="6" laneChangedFrom="0" laneChangedTo="0" flow="83.28"/>
        <edge id="-877408687" sampledSeconds="0.00" departed="0" arrived="0" entered="0" left="0" laneChangedFrom="0" laneChangedTo="0"/>
        <edge id="-89608582#1" sampledSeconds="0.00" departed="0" arrived="0" entered="0" left="0" laneChangedFrom="0" laneChangedTo="0"/>
        <edge id="-89608602" sampledSeconds="0.00" departed="0" arrived="0" entered="0" left="0" laneChangedFrom="0" laneChangedTo="0"/>
        <edge id="-89608607" sampledSeconds="0.00" departed="0" arrived="0" entered="0" left="0" laneChangedFrom="0" laneChangedTo="0"/>
        <edge id="-89608638#0" sampledSeconds="0.00" departed="0" arrived="0" entered="0" left="0" laneChangedFrom="0" laneChangedTo="0"/>
        <edge id="-89608638#1" sampledSeconds="0.00" departed="0" arrived="0" entered="0" left="0" laneChangedFrom="0" laneChangedTo="0"/>
        <edge id="-89608638#3" sampledSeconds="0.00" departed="0" arrived="0" entered="0" left="0" laneChangedFrom="0" laneChangedTo="0"/>
        <edge id="-90047484#0" sampledSeconds="0.00" departed="0" arrived="0" entered="0" left="0" laneChangedFrom="0" laneChangedTo="0"/>
        <edge id="-90047484#2" sampledSeconds="0.00" departed="0" arrived="0" entered="0" left="0" laneChangedFrom="0" laneChangedTo="0"/>
        <edge id="-90047510#0" sampledSeconds="422.02" traveltime="59.95" overlapTraveltime="60.29" density="4.94" overlapDensity="4.97" laneDensity="4.94" occupancy="0.79" waitingTime="0.00" timeLoss="70.35" speed="4.77" speedRelative="0.34" departed="0" arrived="0" entered="7" left="7" laneChangedFrom="0" laneChangedTo="0" flow="84.85"/>
        <edge id="-90047510#1" sampledSeconds="13.68" traveltime="1.63" overlapTraveltime="1.95" density="5.67" overlapDensity="6.79" laneDensity="5.67" occupancy="0.87" waitingTime="0.00" timeLoss="3.43" speed="4.29" speedRelative="0.31" departed="0" arrived="0" entered="7" left="7" laneChangedFrom="0" laneChangedTo="0" flow="84.85"/>
        <edge id="-90047539#1" sampledSeconds="0.00" departed="0" arrived="0" entered="0" left="0" laneChangedFrom="0" laneChangedTo="0"/>
        <edge id="-90047550#0" sampledSeconds="0.00" departed="0" arrived="0" entered="0" left="0" laneChangedFrom="0" laneChangedTo="0"/>
        <edge id="-90047550#1" sampledSeconds="0.00" departed="0" arrived="0" entered="0" left="0" laneChangedFrom="0" laneChangedTo="0"/>
        <edge id="-90047588" sampledSeconds="391.58" traveltime="18.44" overlapTraveltime="18.77" density="14.84" overlapDensity="15.10" laneDensity="14.84" occupancy="2.38" waitingTime="0.00" timeLoss="58.47" speed="4.74" speedRelative="0.34" departed="7" arrived="0" entered="14" left="21" laneChangedFrom="0" laneChangedTo="0" flow="252.89"/>
        <edge id="-90047592#0" sampledSeconds="0.00" departed="0" arrived="0" entered="0" left="0" laneChangedFrom="0" laneChangedTo="0"/>
        <edge id="-90047592#1" sampledSeconds="0.00" departed="0" arrived="0" entered="0" left="0" laneChangedFrom="0" laneChangedTo="0"/>
        <edge id="-952052138#0" sampledSeconds="15.82" traveltime="0.07" overlapTraveltime="1.17" density="4.66" overlapDensity="144.00" laneDensity="4.66" occupancy="5.05" waitingTime="0.00" timeLoss="7.08" speed="3.35" speedRelative="0.24" departed="7" arrived="0" entered="7" left="14" laneChangedFrom="0" laneChangedTo="0" flow="84.85"/>
        <edge id="-952053680#0" sampledSeconds="0.00" departed="0" arrived="0" entered="0" left="0" laneChangedFrom="0" laneChangedTo="0"/>
        <edge id="-952053680#1" sampledSeconds="0.00" departed="0" arrived="0" entered="0" left="0" laneChangedFrom="0" laneChangedTo="0"/>
        <edge id="-952053681#0" sampledSeconds="0.00" departed="0" arrived="0" entered="0" left="0" laneChangedFrom="0" laneChangedTo="0"/>
        <edge id="-952053681#1" sampledSeconds="0.00" departed="0" arrived="0" entered="0" left="0" laneChangedFrom="0" laneChangedTo="0"/>
        <edge id="-952053681#2" sampledSeconds="0.00" departed="0" arrived="0" entered="0" left="0" laneChangedFrom="0" laneChangedTo="0"/>
        <edge id="-952053681#3" sampledSeconds="0.00" departed="0" arrived="0" entered="0" left="0" laneChangedFrom="0" laneChangedTo="0"/>
        <edge id="-952670884" sampledSeconds="0.00" departed="0" arrived="0" entered="0" left="0" laneChangedFrom="0" laneChangedTo="0"/>
        <edge id="-952670885#0" sampledSeconds="0.22" traveltime="0.02" overlapTraveltime="0.20" density="0.59" overlapDensity="3.77" laneDensity="0.59" occupancy="0.07" waitingTime="0.00" timeLoss="0.03" speed="11.73" speedRelative="0.84" departed="0" arrived="2" entered="2" left="0" laneChangedFrom="0" laneChangedTo="0" flow="24.24"/>
        <edge id="-952670885#1" sampledSeconds="35.04" traveltime="9.49" overlapTraveltime="9.68" density="1.09" overlapDensity="1.10" laneDensity="1.09" occupancy="0.24" waitingTime="0.00" timeLoss="4.60" speed="11.31" speedRelative="0.81" departed="0" arrived="0" entered="6" left="2" laneChangedFrom="0" laneChangedTo="0" flow="44.28"/>
        <edge id="-952670885#2" sampledSeconds="35.81" traveltime="5.30" overlapTraveltime="5.49" density="2.11" overlapDensity="2.17" laneDensity="2.11" occupancy="0.44" waitingTime="0.00" timeLoss="7.81" speed="10.52" speedRelative="0.76" departed="0" arrived="0" entered="7" left="6" laneChangedFrom="0" laneChangedTo="0" flow="79.37"/>
        <edge id="-954814120#0" sampledSeconds="0.00" departed="0" arrived="0" entered="0" left="0" laneChangedFrom="0" laneChangedTo="0"/>
        <edge id="-954814966#0" sampledSeconds="0.00" departed="0" arrived="0" entered="0" left="0" laneChangedFrom="0" laneChangedTo="0"/>
        <edge id="-954814966#1" sampledSeconds="0.00" departed="0" arrived="0" entered="0" left="0" laneChangedFrom="0" laneChangedTo="0"/>
        <edge id="-954814967" sampledSeconds="0.00" departed="0" arrived="0" entered="0" left="0" laneChangedFrom="0" laneChangedTo="0"/>
        <edge id="-954836212" sampledSeconds="0.00" departed="0" arrived="0" entered="0" left="0" laneChangedFrom="0" laneChangedTo="0"/>
        <edge id="-958114968" sampledSeconds="0.00" departed="0" arrived="0" entered="0" left="0" laneChangedFrom="0" laneChangedTo="0"/>
        <edge id="-967499795" sampledSeconds="0.00" departed="0" arrived="0" entered="0" left="0" laneChangedFrom="0" laneChangedTo="0"/>
        <edge id="1043618989" sampledSeconds="0.00" departed="0" arrived="0" entered="0" left="0" laneChangedFrom="0" laneChangedTo="0"/>
        <edge id="1062498629#0" sampledSeconds="0.00" departed="0" arrived="0" entered="0" left="0" laneChangedFrom="0" laneChangedTo="0"/>
        <edge id="1062498629#1" sampledSeconds="44.54" traveltime="1.29" overlapTraveltime="1.75" density="14.46" overlapDensity="19.18" laneDensity="14.46" occupancy="4.75" waitingTime="0.00" timeLoss="23.02" speed="6.61" speedRelative="0.48" departed="7" arrived="14" entered="21" left="14" laneChangedFrom="0" laneChangedTo="0" flow="314.44"/>
        <edge id="1062498629#10" sampledSeconds="17.70" traveltime="2.11" overlapTraveltime="2.53" density="2.63" overlapDensity="3.16" laneDensity="2.63" occupancy="0.61" waitingTime="0.00" timeLoss="4.06" speed="8.33" speedRelative="0.60" departed="0" arrived="0" entered="7" left="7" laneChangedFrom="0" laneChangedTo="0" flow="84.85"/>
        <edge id="1062498629#2" sampledSeconds="305.75" traveltime="21.55" overlapTraveltime="22.45" density="4.26" overlapDensity="4.43" laneDensity="4.26" occupancy="2.15" waitingTime="3.00" timeLoss="72.24" speed="10.57" speedRelative="0.76" departed="0" arrived="0" entered="14" left="13" laneChangedFrom="0" laneChangedTo="0" flow="165.26"/>
        <edge id="1062498629#3" sampledSeconds="21.16" traveltime="0.56" overlapTraveltime="1.66" density="8.11" overlapDensity="23.74" laneDensity="8.11" occupancy="4.62" waitingTime="0.00" timeLoss="5.59" speed="4.83" speedRelative="0.35" departed="0" arrived="6" entered="13" left="7" laneChangedFrom="0" laneChangedTo="0" flow="157.58"/>
        <edge id="1062498629#5" sampledSeconds="116.85" traveltime="16.73" overlapTraveltime="16.90" density="2.12" overlapDensity="2.15" laneDensity="2.12" occupancy="0.47" waitingTime="0.00" timeLoss="23.19" speed="10.98" speedRelative="0.79" departed="7" arrived="0" entered="0" left="7" laneChangedFrom="0" laneChangedTo="0" flow="83.78"/>
        <edge id="1062498629#6" sampledSeconds="25.68" traveltime="3.50" overlapTraveltime="3.67" density="1.91" overlapDensity="2.00" laneDensity="1.91" occupancy="0.42" waitingTime="0.00" timeLoss="2.44" speed="12.39" speedRelative="0.89" departed="0" arrived="0" entered="7" left="7" laneChangedFrom="0" laneChangedTo="0" flow="84.85"/>
        <edge id="1062498629#7" sampledSeconds="16.32" traveltime="2.10" overlapTraveltime="2.33" density="2.12" overlapDensity="2.35" laneDensity="2.12" occupancy="0.47" waitingTime="0.00" timeLoss="2.39" speed="10.99" speedRelative="0.79" departed="0" arrived="0" entered="7" left="7" laneChangedFrom="0" laneChangedTo="0" flow="84.85"/>
        <edge id="1062498629#8" sampledSeconds="52.35" traveltime="7.30" overlapTraveltime="7.48" density="1.99" overlapDensity="2.04" laneDensity="1.99" occupancy="0.44" waitingTime="0.00" timeLoss="6.99" speed="11.87" speedRelative="0.85" departed="0" arrived="0" entered="7" left="7" laneChangedFrom="0" laneChangedTo="0" flow="84.85"/>
        <edge id="1062498629#9" sampledSeconds="40.11" traveltime="5.55" overlapTraveltime="5.73" density="1.97" overlapDensity="2.04" laneDensity="1.97" occupancy="0.43" waitingTime="0.00" timeLoss="5.12" speed="11.95" speedRelative="0.86" departed="0" arrived="0" entered="7" left="7" laneChangedFrom="0" laneChangedTo="0" flow="84.85"/>
        <edge id="1125912897" sampledSeconds="0.00" departed="0" arrived="0" entered="0" left="0" laneChangedFrom="0" laneChangedTo="0"/>
        <edge id="1150062811#0" sampledSeconds="1559.66" traveltime="146.07" overlapTraveltime="152.02" density="51.06" overlapDensity="51.51" laneDensity="51.06" occupancy="23.87" waitingTime="828.00" timeLoss="1183.86" speed="0.70" speedRelative="0.25" departed="7" arrived="0" entered="14" left="3" laneChangedFrom="0" laneChangedTo="0" flow="128.29"/>
        <edge id="1150062811#1" sampledSeconds="0.00" departed="0" arrived="0" entered="0" left="0" laneChangedFrom="0" laneChangedTo="0"/>
        <edge id="1150062811#2" sampledSeconds="94.98" traveltime="13.68" overlapTraveltime="16.30" density="10.13" overlapDensity="12.57" laneDensity="10.13" occupancy="5.69" waitingTime="0.00" timeLoss="30.02" speed="1.87" speedRelative="0.67" departed="7" arrived="0" entered="0" left="7" laneChangedFrom="0" laneChangedTo="0" flow="67.84"/>
        <edge id="1150062812#0" sampledSeconds="0.00" departed="0" arrived="0" entered="0" left="0" laneChangedFrom="0" laneChangedTo="0"/>
        <edge id="1150062812#1" sampledSeconds="0.00" departed="0" arrived="0" entered="0" left="0" laneChangedFrom="0" laneChangedTo="0"/>
        <edge id="1150062813" sampledSeconds="0.00" departed="0" arrived="0" entered="0" left="0" laneChangedFrom="0" laneChangedTo="0"/>
        <edge id="1193997327#0" sampledSeconds="10.08" traveltime="5.51" overlapTraveltime="5.84" density="1.28" overlapDensity="1.32" laneDensity="1.28" occupancy="0.19" waitingTime="0.00" timeLoss="1.19" speed="4.69" speedRelative="0.84" departed="0" arrived="0" entered="3" left="1" laneChangedFrom="0" laneChangedTo="0" flow="21.48"/>