<?xml version="1.0" encoding="UTF-8"?>

<!-- generated on 2026-02-07T11:45:18.961896+07:00 by Eclipse SUMO sumo v1_25_0+0904-59bbc76848e
<sumoConfiguration xmlns:xsi="http://www.w3.org/2001/XMLSchema-instance" xsi:noNamespaceSchemaLocation="http://sumo.dlr.de/xsd/sumoConfiguration.xsd">

    <input>
        <net-file value="maps/NinhKieuBridge/osm.net.xml.gz"/>
        <route-files value="maps/NinhKieuBridge/osm_pt.rou.xml,maps/NinhKieuBridge/osm.bicycle.trips.xml,maps/NinhKieuBridge/osm.motorcycle.trips.xml,maps/NinhKieuBridge/osm.passenger.trips.xml,maps/NinhKieuBridge/osm.pedestrian.rou.xml"/>
        <additional-files value="maps/NinhKieuBridge/osm.poly.xml.gz,maps/NinhKieuBridge/osm_stops.add.xml,maps/NinhKieuBridge/output.add.xml"/>
    </input>

    <output>
        <tripinfo-output value="maps/NinhKieuBridge/tripinfos.xml"/>
        <stop-output value="maps/NinhKieuBridge/stopinfos.xml"/>
        <statistic-output value="maps/NinhKieuBridge/stats.xml"/>
    </output>

    <processing>
        <ignore-route-errors value="true"/>
        <scale value="7.0"/>
        <tls.actuated.jam-threshold value="30"/>
    </processing>

    <routing>
        <device.rerouting.adaptation-steps value="18"/>
        <device.rerouting.adaptation-interval value="10"/>
    </routing>

    <report>
        <verbose value="true"/>
        <no-warnings value="true"/>
        <no-step-log value="true"/>
    </report>

    <emissions>
        <device.emissions.probability value="1.0"/>
    </emissions>

    <traci_server>
        <remote-port value="46431"/>
    </traci_server>

    <gui_only>
        <gui-settings-file value="maps/NinhKieuBridge/osm.view.xml"/>
        <quit-on-end value="true"/>
        <start value="true"/>
        <delay value="20"/>
    </gui_only>

</sumoConfiguration>
-->

<meandata xmlns:xsi="http://www.w3.org/2001/XMLSchema-instance" xsi:noNamespaceSchemaLocation="http://sumo.dlr.de/xsd/meandata_file.xsd">
    <interval begin="0.00" end="297.00" id="wizard_example">
        <edge id="-1043618989" sampledSeconds="0.00" departed="0" arrived="0" entered="0" left="0" laneChangedFrom="0" laneChangedTo="0"/>
        <edge id="-1062498629#0" sampledSeconds="209.90" traveltime="24.68" overlapTraveltime="25.01" density="2.15" overlapDensity="2.17" laneDensity="2.15" occupancy="1.07" waitingTime="0.00" timeLoss="29.12" speed="13.20" speedRelative="0.95" departed="1" arrived="7" entered="8" left="1" laneChangedFrom="0" laneChangedTo="0" flow="101.87"/>
        <edge id="-1062498629#1" sampledSeconds="47.50" traveltime="1.59" overlapTraveltime="2.14" density="14.36" overlapDensity="20.45" laneDensity="14.36" occupancy="3.55" waitingTime="0.00" timeLoss="19.10" speed="4.75" speedRelative="0.34" departed="0" arrived="0" entered="21" left="21" laneChangedFrom="0" laneChangedTo="0" flow="254.55"/>
        <edge id="-1062498629#10" sampledSeconds="17.30" traveltime="2.24" overlapTraveltime="2.76" density="2.80" overlapDensity="3.09" laneDensity="2.80" occupancy="1.25" waitingTime="0.00" timeLoss="6.29" speed="8.65" speedRelative="0.62" departed="0" arrived="7" entered="7" left="0" laneChangedFrom="0" laneChangedTo="0" flow="84.85"/>
        <edge id="-1062498629#2" sampledSeconds="1343.28" traveltime="38.02" overlapTraveltime="38.30" density="19.26" overlapDensity="19.45" laneDensity="19.26" occupancy="4.64" waitingTime="2.00" timeLoss="388.18" speed="6.14" speedRelative="0.44" departed="0" arrived="14" entered="35" left="21" laneChangedFrom="0" laneChangedTo="0" flow="424.24"/>
        <edge id="-1062498629#3" sampledSeconds="50.97" traveltime="0.95" overlapTraveltime="1.48" density="32.95" overlapDensity="57.21" laneDensity="32.95" occupancy="8.24" waitingTime="1.00" timeLoss="30.78" speed="3.94" speedRelative="0.28" departed="7" arrived="0" entered="28" left="35" laneChangedFrom="0" laneChangedTo="0" flow="376.16"/>
        <edge id="-1062498629#5" sampledSeconds="107.02" traveltime="14.45" overlapTraveltime="15.29" density="1.84" overlapDensity="1.95" laneDensity="1.84" occupancy="0.94" waitingTime="0.00" timeLoss="12.74" speed="12.43" speedRelative="0.89" departed="0" arrived="0" entered="7" left="7" laneChangedFrom="0" laneChangedTo="0" flow="84.85"/>
        <edge id="-1062498629#6" sampledSeconds="46.09" traveltime="7.01" overlapTraveltime="7.36" density="3.37" overlapDensity="3.59" laneDensity="3.37" occupancy="1.74" waitingTime="1.00" timeLoss="25.30" speed="6.55" speedRelative="0.47" departed="7" arrived="0" entered="0" left="7" laneChangedFrom="0" laneChangedTo="0" flow="74.85"/>
        <edge id="-1062498629#7" sampledSeconds="0.00" departed="0" arrived="0" entered="0" left="0" laneChangedFrom="0" laneChangedTo="0"/>
        <edge id="-1062498629#8" sampledSeconds="0.00" departed="0" arrived="0" entered="0" left="0" laneChangedFrom="0" laneChangedTo="0"/>
        <edge id="-1062498629#9" sampledSeconds="0.00" departed="0" arrived="0" entered="0" left="0" laneChangedFrom="0" laneChangedTo="0"/>
        <edge id="-1150062811#0" sampledSeconds="1752.17" traveltime="77.48" overlapTraveltime="79.67" density="57.06" overlapDensity="57.87" laneDensity="57.06" occupancy="23.45" waitingTime="235.00" timeLoss="937.19" speed="1.33" speedRelative="0.48" departed="0" arrived="0" entered="28" left="16" laneChangedFrom="0" laneChangedTo="0" flow="270.30"/>
        <edge id="-1150062811#1" sampledSeconds="789.32" traveltime="82.65" overlapTraveltime="86.73" density="22.26" overlapDensity="22.91" laneDensity="22.26" occupancy="11.06" waitingTime="133.00" timeLoss="399.09" speed="1.40" speedRelative="0.50" departed="0" arrived="0" entered="13" left="5" laneChangedFrom="0" laneChangedTo="0" flow="112.46"/>
        <edge id="-1150062811#2" sampledSeconds="103.69" traveltime="12.26" overlapTraveltime="14.81" density="11.36" overlapDensity="13.72" laneDensity="11.36" occupancy="5.67" waitingTime="0.00" timeLoss="25.66" speed="2.05" speedRelative="0.74" departed="0" arrived="0" entered="7" left="7" laneChangedFrom="0" laneChangedTo="0" flow="84.85"/>
        <edge id="-1150062812#0" sampledSeconds="712.35" traveltime="100.34" overlapTraveltime="104.43" density="11.82" overlapDensity="12.31" laneDensity="11.82" occupancy="6.05" waitingTime="5.00" timeLoss="229.88" speed="1.91" speedRelative="0.69" departed="7" arrived="0" entered="0" left="7" laneChangedFrom="0" laneChangedTo="0" flow="82.63"/>
        <edge id="-1150062812#1" sampledSeconds="368.40" traveltime="52.48" overlapTraveltime="53.93" density="12.98" overlapDensity="13.35" laneDensity="12.98" occupancy="2.90" waitingTime="0.00" timeLoss="127.87" speed="1.76" speedRelative="0.63" departed="7" arrived="0" entered="0" left="7" laneChangedFrom="0" laneChangedTo="0" flow="82.75"/>
        <edge id="-1150062813" sampledSeconds="970.44" traveltime="46.06" overlapTraveltime="48.19" density="39.56" overlapDensity="41.49" laneDensity="39.56" occupancy="16.39" waitingTime="4.00" timeLoss="371.93" speed="1.72" speedRelative="0.62" departed="14" arrived="0" entered="7" left="21" laneChangedFrom="0" laneChangedTo="0" flow="243.56"/>
        <edge id="-1193997327#0" sampledSeconds="88.68" traveltime="7.21" overlapTraveltime="7.71" density="10.86" overlapDensity="11.59" laneDensity="10.86" occupancy="1.77" waitingTime="0.00" timeLoss="30.29" speed="3.55" speedRelative="0.64" departed="7" arrived="0" entered="7" left="11" laneChangedFrom="0" laneChangedTo="0" flow="139.74"/>
        <edge id="-1193997327#2" sampledSeconds="62.93" traveltime="8.67" overlapTraveltime="8.99" density="4.91" overlapDensity="5.09" laneDensity="4.91" occupancy="0.78" waitingTime="0.00" timeLoss="8.06" speed="4.81" speedRelative="0.86" departed="0" arrived="0" entered="7" left="7" laneChangedFrom="0" laneChangedTo="0" flow="84.85"/>
        <edge id="-1193997327#3" sampledSeconds="0.00" departed="0" arrived="0" entered="0" left="0" laneChangedFrom="0" laneChangedTo="0"/>
        <edge id="-1193997327#4" sampledSeconds="0.00" departed="0" arrived="0" entered="0" left="0" laneChangedFrom="0" laneChangedTo="0"/>
        <edge id="-1193997328#0" sampledSeconds="0.00" departed="0" arrived="0" entered="0" left="0" laneChangedFrom="0" laneChangedTo="0"/>
        <edge id="-1193997328#1" sampledSeconds="0.00" departed="0" arrived="0" entered="0" left="0" laneChangedFrom="0" laneChangedTo="0"/>
        <edge id="-1193997328#2" sampledSeconds="0.00" departed="0" arrived="0" entered="0" left="0" laneChangedFrom="0" laneChangedTo="0"/>
        <edge id="-1193997329" sampledSeconds="0.00" departed="0" arrived="0" entered="0" left="0" laneChangedFrom="0" laneChangedTo="0"/>
        <edge id="-1211918059#0" sampledSeconds="0.00" departed="0" arrived="0" entered="0" left="0" laneChangedFrom="0" laneChangedTo="0"/>
        <edge id="-1211918059#1" sampledSeconds="0.00" departed="0" arrived="0" entered="0" left="0" laneChangedFrom="0" laneChangedTo="0"/>
        <edge id="-1211928057#0" sampledSeconds="126.08" traveltime="17.32" overlapTraveltime="18.01" density="14.97" overlapDensity="15.57" laneDensity="14.97" occupancy="2.41" waitingTime="59.00" timeLoss="90.13" speed="1.60" speedRelative="0.29" departed="0" arrived="0" entered="7" left="7" laneChangedFrom="0" laneChangedTo="0" flow="84.85"/>
        <edge id="-1211928057#1" sampledSeconds="0.00" departed="0" arrived="0" entered="0" left="0" laneChangedFrom="0" laneChangedTo="0"/>
        <edge id="-1211928058#0" sampledSeconds="0.00" departed="0" arrived="0" entered="0" left="0" laneChangedFrom="0" laneChangedTo="0"/>
        <edge id="-1211928058#1" sampledSeconds="0.00" departed="0" arrived="0" entered="0" left="0" laneChangedFrom="0" laneChangedTo="0"/>
        <edge id="-1211988156" sampledSeconds="0.00" departed="0" arrived="0" entered="0" left="0" laneChangedFrom="0" laneChangedTo="0"/>
        <edge id="-1284876490#0" sampledSeconds="89.23" traveltime="5.95" overlapTraveltime="6.37" density="3.62" overlapDensity="3.88" laneDensity="3.62" occupancy="1.82" waitingTime="0.00" timeLoss="9.60" speed="12.94" speedRelative="0.93" departed="0" arrived="0" entered="14" left="14" laneChangedFrom="0" laneChangedTo="0" flow="169.70"/>
        <edge id="-1284876490#1" sampledSeconds="54.95" traveltime="3.54" overlapTraveltime="3.92" density="4.82" overlapDensity="5.34" laneDensity="4.82" occupancy="2.29" waitingTime="0.00" timeLoss="16.67" speed="10.10" speedRelative="0.73" departed="0" arrived="0" entered="14" left="14" laneChangedFrom="0" laneChangedTo="0" flow="169.70"/>
        <edge id="-1320722753#0" sampledSeconds="68.76" traveltime="9.50" overlapTraveltime="9.82" density="4.93" overlapDensity="5.10" laneDensity="4.93" occupancy="0.79" waitingTime="0.00" timeLoss="11.22" speed="4.79" speedRelative="0.86" departed="0" arrived="0" entered="7" left="7" laneChangedFrom="0" laneChangedTo="0" flow="84.85"/>
        <edge id="-1320722753#1" sampledSeconds="14.37" traveltime="1.72" overlapTraveltime="2.05" density="5.58" overlapDensity="6.67" laneDensity="5.58" occupancy="0.88" waitingTime="0.00" timeLoss="3.54" speed="4.31" speedRelative="0.78" departed="0" arrived="0" entered="7" left="7" laneChangedFrom="0" laneChangedTo="0" flow="84.85"/>
        <edge id="-1351702507#0" sampledSeconds="0.00" departed="0" arrived="0" entered="0" left="0" laneChangedFrom="0" laneChangedTo="0"/>
        <edge id="-1351702507#1" sampledSeconds="0.00" departed="0" arrived="0" entered="0" left="0" laneChangedFrom="0" laneChangedTo="0"/>
        <edge id="-1351702507#2" sampledSeconds="0.00" departed="0" arrived="0" entered="0" left="0" laneChangedFrom="0" laneChangedTo="0"/>
        <edge id="-1351702507#3" sampledSeconds="0.00" departed="0" arrived="0" entered="0" left="0" laneChangedFrom="0" laneChangedTo="0"/>
        <edge id="-166333704#0" sampledSeconds="79.68" traveltime="6.29" overlapTraveltime="6.47" density="18.35" overlapDensity="20.65" laneDensity="18.35" occupancy="5.60" waitingTime="28.00" timeLoss="62.94" speed="2.47" speedRelative="0.18" departed="7" arrived="0" entered="7" left="14" laneChangedFrom="0" laneChangedTo="0" flow="136.38"/>
        <edge id="-166333704#1" sampledSeconds="88.57" traveltime="12.33" overlapTraveltime="12.65" density="2.67" overlapDensity="2.74" laneDensity="2.67" occupancy="0.59" waitingTime="1.00" timeLoss="27.43" speed="8.78" speedRelative="0.63" departed="0" arrived="0" entered="7" left="7" laneChangedFrom="0" laneChangedTo="0" flow="84.85"/>
        <edge id="-166333704#2" sampledSeconds="7.78" traveltime="0.87" overlapTraveltime="1.11" density="3.58" overlapDensity="4.59" laneDensity="3.58" occupancy="0.70" waitingTime="0.00" timeLoss="3.43" speed="7.12" speedRelative="0.51" departed="0" arrived="0" entered="7" left="7" laneChangedFrom="0" laneChangedTo="0" flow="84.85"/>
        <edge id="-43140826#0" sampledSeconds="339.23" traveltime="27.55" overlapTraveltime="28.74" density="5.20" overlapDensity="5.38" laneDensity="5.20" occupancy="2.43" waitingTime="0.00" timeLoss="133.38" speed="7.55" speedRelative="0.54" departed="0" arrived="0" entered="15" left="7" laneChangedFrom="0" laneChangedTo="0" flow="144.24"/>
        <edge id="-43140826#1" sampledSeconds="254.55" traveltime="14.58" overlapTraveltime="15.14" density="8.93" overlapDensity="9.28" laneDensity="8.93" occupancy="3.79" waitingTime="0.00" timeLoss="106.64" speed="6.38" speedRelative="0.46" departed="7" arrived="0" entered="11" left="16" laneChangedFrom="0" laneChangedTo="0" flow="203.59"/>
        <edge id="-43140826#2" sampledSeconds="583.75" traveltime="20.33" overlapTraveltime="22.32" density="14.77" overlapDensity="16.23" laneDensity="14.77" occupancy="4.79" waitingTime="48.00" timeLoss="193.71" speed="5.57" speedRelative="0.40" departed="0" arrived="0" entered="29" left="25" laneChangedFrom="0" laneChangedTo="0" flow="316.75"/>
        <edge id="-43140831#0" sampledSeconds="0.00" departed="0" arrived="0" entered="0" left="0" laneChangedFrom="0" laneChangedTo="0"/>
        <edge id="-43140831#1" sampledSeconds="176.97" traveltime="23.02" overlapTraveltime="23.34" density="5.51" overlapDensity="5.57" laneDensity="5.51" occupancy="0.88" waitingTime="0.00" timeLoss="27.94" speed="4.66" speedRelative="0.34" departed="0" arrived="7" entered="10" left="0" laneChangedFrom="0" laneChangedTo="0" flow="92.28"/>
        <edge id="-43140831#2" sampledSeconds="364.88" traveltime="13.50" overlapTraveltime="14.09" density="50.51" overlapDensity="52.89" laneDensity="50.51" occupancy="11.21" waitingTime="160.00" timeLoss="258.02" speed="1.80" speedRelative="0.13" departed="6" arrived="0" entered="22" left="26" laneChangedFrom="0" laneChangedTo="0" flow="312.96"/>
        <edge id="-43140831#3" sampledSeconds="230.95" traveltime="10.18" overlapTraveltime="10.47" density="14.50" overlapDensity="14.96" laneDensity="14.50" occupancy="2.35" waitingTime="0.00" timeLoss="26.56" speed="5.12" speedRelative="0.37" departed="0" arrived="0" entered="22" left="22" laneChangedFrom="0" laneChangedTo="0" flow="266.67"/>
        <edge id="-43140831#4" sampledSeconds="312.95" traveltime="13.91" overlapTraveltime="14.20" density="14.48" overlapDensity="14.80" laneDensity="14.48" occupancy="2.34" waitingTime="0.00" timeLoss="35.33" speed="5.13" speedRelative="0.37" departed="0" arrived="0" entered="22" left="22" laneChangedFrom="0" laneChangedTo="0" flow="266.67"/>
        <edge id="-43140831#5" sampledSeconds="376.25" traveltime="16.90" overlapTraveltime="17.18" density="14.59" overlapDensity="14.86" laneDensity="14.59" occupancy="2.37" waitingTime="0.00" timeLoss="46.95" speed="5.06" speedRelative="0.36" departed="7" arrived="0" entered="15" left="22" laneChangedFrom="0" laneChangedTo="0" flow="264.98"/>
        <edge id="-43140831#6" sampledSeconds="68.59" traveltime="4.28" overlapTraveltime="4.54" density="9.13" overlapDensity="9.76" laneDensity="9.13" occupancy="1.49" waitingTime="0.00" timeLoss="4.38" speed="5.58" speedRelative="0.40" departed="0" arrived="0" entered="15" left="15" laneChangedFrom="0" laneChangedTo="0" flow="181.82"/>
        <edge id="-443405652#0" sampledSeconds="174.11" traveltime="12.69" overlapTraveltime="12.95" density="7.06" overlapDensity="7.20" laneDensity="7.06" occupancy="1.23" waitingTime="0.00" timeLoss="21.95" speed="6.42" speedRelative="0.46" departed="0" arrived="0" entered="15" left="13" laneChangedFrom="0" laneChangedTo="0" flow="162.87"/>
        <edge id="-443405652#1" sampledSeconds="58.75" traveltime="8.07" overlapTraveltime="8.39" density="2.20" overlapDensity="2.29" laneDensity="2.20" occupancy="0.48" waitingTime="0.00" timeLoss="11.86" speed="10.56" speedRelative="0.76" departed="0" arrived="0" entered="7" left="7" laneChangedFrom="0" laneChangedTo="0" flow="84.85"/>
        <edge id="-443842819#0" sampledSeconds="0.00" departed="0" arrived="0" entered="0" left="0" laneChangedFrom="0" laneChangedTo="0"/>
        <edge id="-443842819#1" sampledSeconds="0.00" departed="0" arrived="0" entered="0" left="0" laneChangedFrom="0" laneChangedTo="0"/>
        <edge id="-443842820" sampledSeconds="274.41" traveltime="38.91" overlapTraveltime="39.20" density="4.43" overlapDensity="4.47" laneDensity="4.43" occupancy="0.71" waitingTime="0.00" timeLoss="19.00" speed="5.32" speedRelative="0.38" departed="0" arrived="0" entered="7" left="7" laneChangedFrom="0" laneChangedTo="0" flow="84.85"/>
        <edge id="-443842821#0" sampledSeconds="0.00" departed="0" arrived="0" entered="0" left="0" laneChangedFrom="0" laneChangedTo="0"/>
        <edge id="-443842821#1" sampledSeconds="0.00" departed="0" arrived="0" entered="0" left="0" laneChangedFrom="0" laneChangedTo="0"/>
        <edge id="-696616385" sampledSeconds="0.00" departed="0" arrived="0" entered="0" left="0" laneChangedFrom="0" laneChangedTo="0"/>
        <edge id="-696616468" sampledSeconds="0.00" departed="0" arrived="0" entered="0" left="0" laneChangedFrom="0" laneChangedTo="0"/>
        <edge id="-877366030#0" sampledSeconds="38.50" traveltime="9.21" overlapTraveltime="10.65" density="43.60" overlapDensity="45.97" laneDensity="43.60" occupancy="7.01" waitingTime="31.00" timeLoss="35.81" speed="0.41" speedRelative="0.07" departed="0" arrived="0" entered="4" left="3" laneChangedFrom="0" laneChangedTo="0" flow="48.05"/>
        <edge id="-877366030#1" sampledSeconds="318.49" traveltime="46.39" overlapTraveltime="47.05" density="9.58" overlapDensity="9.66" laneDensity="9.58" occupancy="1.54" waitingTime="119.00" timeLoss="181.78" speed="2.39" speedRelative="0.43" departed="7" arrived="0" entered="0" left="4" laneChangedFrom="0" laneChangedTo="0" flow="82.53"/>
        <edge id="-877408687" sampledSeconds="0.00" departed="0" arrived="0" entered="0" left="0" laneChangedFrom="0" laneChangedTo="0"/>
        <edge id="-89608582#1" sampledSeconds="0.00" departed="0" arrived="0" entered="0" left="0" laneChangedFrom="0" laneChangedTo="0"/>
        <edge id="-89608602" sampledSeconds="0.00" departed="0" arrived="0" entered="0" left="0" laneChangedFrom="0" laneChangedTo="0"/>
        <edge id="-89608607" sampledSeconds="0.00" departed="0" arrived="0" entered="0" left="0" laneChangedFrom="0" laneChangedTo="0"/>
        <edge id="-89608638#0" sampledSeconds="0.00" departed="0" arrived="0" entered="0" left="0" laneChangedFrom="0" laneChangedTo="0"/>
        <edge id="-89608638#1" sampledSeconds="0.00" departed="0" arrived="0" entered="0" left="0" laneChangedFrom="0" laneChangedTo="0"/>
        <edge id="-89608638#3" sampledSeconds="0.00" departed="0" arrived="0" entered="0" left="0" laneChangedFrom="0" laneChangedTo="0"/>
        <edge id="-90047484#0" sampledSeconds="0.00" departed="0" arrived="0" entered="0" left="0" laneChangedFrom="0" laneChangedTo="0"/>
        <edge id="-90047484#2" sampledSeconds="0.00" departed="0" arrived="0" entered="0" left="0" laneChangedFrom="0" laneChangedTo="0"/>
        <edge id="-90047510#0" sampledSeconds="422.02" traveltime="59.95" overlapTraveltime="60.29" density="4.94" overlapDensity="4.97" laneDensity="4.94" occupancy="0.79" waitingTime="0.00" timeLoss="70.35" speed="4.77" speedRelative="0.34" departed="0" arrived="0" entered="7" left="7" laneChangedFrom="0" laneChangedTo="0" flow="84.85"/>
        <edge id="-90047510#1" sampledSeconds="13.68" traveltime="1.63" overlapTraveltime="1.95" density="5.67" overlapDensity="6.79" laneDensity="5.67" occupancy="0.87" waitingTime="0.00" timeLoss="3.43" speed="4.29" speedRelative="0.31" departed="0" arrived="0" entered="7" left="7" laneChangedFrom="0" laneChangedTo="0" flow="84.85"/>
        <edge id="-90047539#1" sampledSeconds="0.00" departed="0" arrived="0" entered="0" left="0" laneChangedFrom="0" laneChangedTo="0"/>
        <edge id="-90047550#0" sampledSeconds="0.00" departed="0" arrived="0" entered="0" left="0" laneChangedFrom="0" laneChangedTo="0"/>
        <edge id="-90047550#1" sampledSeconds="0.00" departed="0" arrived="0" entered="0" left="0" laneChangedFrom="0" laneChangedTo="0"/>
        <edge id="-90047588" sampledSeconds="391.58" traveltime="18.44" overlapTraveltime="18.77" density="14.84" overlapDensity="15.10" laneDensity="14.84" occupancy="2.38" waitingTime="0.00" timeLoss="58.46" speed="4.74" speedRelative="0.34" departed="7" arrived="0" entered="14" left="21" laneChangedFrom="0" laneChangedTo="0" flow="252.89"/>
        <edge id="-90047592#0" sampledSeconds="0.00" departed="0" arrived="0" entered="0" left="0" laneChangedFrom="0" laneChangedTo="0"/>
        <edge id="-90047592#1" sampledSeconds="0.00" departed="0" arrived="0" entered="0" left="0" laneChangedFrom="0" laneChangedTo="0"/>
        <edge id="-952052138#0" sampledSeconds="15.82" traveltime="0.07" overlapTraveltime="1.17" density="4.66" overlapDensity="144.00" laneDensity="4.66" occupancy="5.05" waitingTime="0.00" timeLoss="7.08" speed="3.35" speedRelative="0.24" departed="7" arrived="0" entered="7" left="14" laneChangedFrom="0" laneChangedTo="0" flow="84.85"/>
        <edge id="-952053680#0" sampledSeconds="0.00" departed="0" arrived="0" entered="0" left="0" laneChangedFrom="0" laneChangedTo="0"/>
        <edge id="-952053680#1" sampledSeconds="0.00" departed="0" arrived="0" entered="0" left="0" laneChangedFrom="0" laneChangedTo="0"/>
        <edge id="-952053681#0" sampledSeconds="0.00" departed="0" arrived="0" entered="0" left="0" laneChangedFrom="0" laneChangedTo="0"/>
        <edge id="-952053681#1" sampledSeconds="0.00" departed="0" arrived="0" entered="0" left="0" laneChangedFrom="0" laneChangedTo="0"/>
        <edge id="-952053681#2" sampledSeconds="0.00" departed="0" arrived="0" entered="0" left="0" laneChangedFrom="0" laneChangedTo="0"/>
        <edge id="-952053681#3" sampledSeconds="0.00" departed="0" arrived="0" entered="0" left="0" laneChangedFrom="0" laneChangedTo="0"/>
        <edge id="-952670884" sampledSeconds="0.00" departed="0" arrived="0" entered="0" left="0" laneChangedFrom="0" laneChangedTo="0"/>
        <edge id="-952670885#0" sampledSeconds="0.22" traveltime="0.02" overlapTraveltime="0.20" density="0.59" overlapDensity="3.77" laneDensity="0.59" occupancy="0.07" waitingTime="0.00" timeLoss="0.03" speed="11.73" speedRelative="0.84" departed="0" arrived="2" entered="2" left="0" laneChangedFrom="0" laneChangedTo="0" flow="24.24"/>
        <edge id="-952670885#1" sampledSeconds="35.58" traveltime="9.48" overlapTraveltime="9.68" density="1.10" overlapDensity="1.12" laneDensity="1.10" occupancy="0.24" waitingTime="0.00" timeLoss="4.57" speed="11.32" speedRelative="0.81" departed="0" arrived="0" entered="6" left="2" laneChangedFrom="0" laneChangedTo="0" flow="44.98"/>
        <edge id="-952670885#2" sampledSeconds="34.96" traveltime="5.30" overlapTraveltime="5.48" density="2.06" overlapDensity="2.12" laneDensity="2.06" occupancy="0.43" waitingTime="0.00" timeLoss="7.57" speed="10.53" speedRelative="0.76" departed="0" arrived="0" entered="7" left="6" laneChangedFrom="0" laneChangedTo="0" flow="77.49"/>
        <edge id="-954814120#0" sampledSeconds="0.00" departed="0" arrived="0" entered="0" left="0" laneChangedFrom="0" laneChangedTo="0"/>
        <edge id="-954814966#0" sampledSeconds="0.00" departed="0" arrived="0" entered="0" left="0" laneChangedFrom="0" laneChangedTo="0"/>
        <edge id="-954814966#1" sampledSeconds="0.00" departed="0" arrived="0" entered="0" left="0" laneChangedFrom="0" laneChangedTo="0"/>
        <edge id="-954814967" sampledSeconds="0.00" departed="0" arrived="0" entered="0" left="0" laneChangedFrom="0" laneChangedTo="0"/>
        <edge id="-954836212" sampledSeconds="0.00" departed="0" arrived="0" entered="0" left="0" laneChangedFrom="0" laneChangedTo="0"/>
        <edge id="-958114968" sampledSeconds="0.00" departed="0" arrived="0" entered="0" left="0" laneChangedFrom="0" laneChangedTo="0"/>
        <edge id="-967499795" sampledSeconds="0.00" departed="0" arrived="0" entered="0" left="0" laneChangedFrom="0" laneChangedTo="0"/>
        <edge id="1043618989" sampledSeconds="0.00" departed="0" arrived="0" entered="0" left="0" laneChangedFrom="0" laneChangedTo="0"/>
        <edge id="1062498629#0" sampledSeconds="9.54" traveltime="9.41" overlapTraveltime="9.54" density="0.10" overlapDensity="0.10" laneDensity="0.10" occupancy="0.05" waitingTime="0.00" timeLoss="0.00" speed="34.58" speedRelative="2.49" departed="0" arrived="0" entered="1" left="1" laneChangedFrom="0" laneChangedTo="0" flow="12.12"/>
        <edge id="1062498629#1" sampledSeconds="44.65" traveltime="1.30" overlapTraveltime="1.76" density="14.51" overlapDensity="19.22" laneDensity="14.51" occupancy="4.76" waitingTime="0.00" timeLoss="23.13" speed="6.59" speedRelative="0.47" departed="7" arrived="14" entered="21" left="14" laneChangedFrom="0" laneChangedTo="0" flow="314.44"/>
        <edge id="1062498629#10" sampledSeconds="17.70" traveltime="2.11" overlapTraveltime="2.53" density="2.63" overlapDensity="3.16" laneDensity="2.63" occupancy="0.61" waitingTime="0.00" timeLoss="4.06" speed="8.33" speedRelative="0.60" departed="0" arrived="0" entered="7" left="7" laneChangedFrom="0" laneChangedTo="0" flow="84.85"/>
        <edge id="1062498629#2" sampledSeconds="305.39" traveltime="21.56" overlapTraveltime="22.46" density="4.25" overlapDensity="4.43" laneDensity="4.25" occupancy="2.15" waitingTime="3.00" timeLoss="72.30" speed="10.57" speedRelative="0.76" departed="0" arrived="0" entered="14" left="13" laneChangedFrom="0" laneChangedTo="0" flow="164.98"/>
        <edge id="1062498629#3" sampledSeconds="21.22" traveltime="0.56" overlapTraveltime="1.65" density="8.11" overlapDensity="23.81" laneDensity="8.11" occupancy="4.62" waitingTime="0.00" timeLoss="5.59" speed="4.85" speedRelative="0.35" departed="0" arrived="6" entered="13" left="7" laneChangedFrom="0" laneChangedTo="0" flow="157.58"/>
        <edge id="1062498629#5" sampledSeconds="116.85" traveltime="16.73" overlapTraveltime="16.90" density="2.12" overlapDensity="2.15" laneDensity="2.12" occupancy="0.47" waitingTime="0.00" timeLoss="23.19" speed="10.98" speedRelative="0.79" departed="7" arrived="0" entered="0" left="7" laneChangedFrom="0" laneChangedTo="0" flow="83.78"/>
        <edge id="1062498629#6" sampledSeconds="25.68" traveltime="3.50" overlapTraveltime="3.67" density="1.91" overlapDensity="2.00" laneDensity="1.91" occupancy="0.42" waitingTime="0.00" timeLoss="2.44" speed="12.39" speedRelative="0.89" departed="0" arrived="0" entered="7" left="7" laneChangedFrom="0" laneChangedTo="0" flow="84.85"/>
        <edge id="1062498629#7" sampledSeconds="16.32" traveltime="2.10" overlapTraveltime="2.33" density="2.12" overlapDensity="2.35" laneDensity="2.12" occupancy="0.47" waitingTime="0.00" timeLoss="2.39" speed="10.99" speedRelative="0.79" departed="0" arrived="0" entered="7" left="7" laneChangedFrom="0" laneChangedTo="0" flow="84.85"/>
        <edge id="1062498629#8" sampledSeconds="52.35" traveltime="7.30" overlapTraveltime="7.48" density="1.99" overlapDensity="2.04" laneDensity="1.99" occupancy="0.44" waitingTime="0.00" timeLoss="6.99" speed="11.87" speedRelative="0.85" departed="0" arrived="0" entered="7" left="7" laneChangedFrom="0" laneChangedTo="0" flow="84.85"/>
        <edge id="1062498629#9" sampledSeconds="40.11" traveltime="5.55" overlapTraveltime="5.73" density="1.97" overlapDensity="2.04" laneDensity="1.97" occupancy="0.43" waitingTime="0.00" timeLoss="5.12" speed="11.95" speedRelative="0.86" departed="0" arrived="0" entered="7" left="7" laneChangedFrom="0" laneChangedTo="0" flow="84.85"/>
        <edge id="1125912897" sampledSeconds="0.00" departed="0" arrived="0" entered="0" left="0" laneChangedFrom="0" laneChangedTo="0"/>
        <edge id="1150062811#0" sampledSeconds="1567.95" traveltime="146.35" overlapTraveltime="152.29" density="51.33" overlapDensity="51.78" laneDensity="51.33" occupancy="23.91" waitingTime="832.00" timeLoss="1190.77" speed="0.70" speedRelative="0.25" departed="7" arrived="0" entered="14" left="3" laneChangedFrom="0" laneChangedTo="0" flow="128.73"/>
        <edge id="1150062811#1" sampledSeconds="0.00" departed="0" arrived="0" entered="0" left="0" laneChangedFrom="0" laneChangedTo="0"/>
        <edge id="1150062811#2" sampledSeconds="94.98" traveltime="13.68" overlapTraveltime="16.30" density="10.13" overlapDensity="12.57" laneDensity="10.13" occupancy="5.69" waitingTime="0.00" timeLoss="30.02" speed="1.87" speedRelative="0.67" departed="7" arrived="0" entered="0" left="7" laneChangedFrom="0" laneChangedTo="0" flow="67.84"/>
        <edge id="1150062812#0" sampledSeconds="0.00" departed="0" arrived="0" entered="0" left="0" laneChangedFrom="0" laneChangedTo="0"/>
        <edge id="1150062812#1" sampledSeconds="0.00" departed="0" arrived="0" entered="0" left="0" laneChangedFrom="0" laneChangedTo="0"/>
        <edge id="1150062813" sampledSeconds="0.00" departed="0" arrived="0" entered="0" left="0" laneChangedFrom="0" laneChangedTo="0"/>