<?xml version="1.0" encoding="UTF-8"?>

<!-- generated on 2026-02-06T14:43:17.944122+07:00 by Eclipse SUMO sumo v1_25_0+0904-59bbc76848e
<sumoConfiguration xmlns:xsi="http://www.w3.org/2001/XMLSchema-instance" xsi:noNamespaceSchemaLocation="http://sumo.dlr.de/xsd/sumoConfiguration.xsd">

    <input>
        <net-file value="maps/NinhKieuBridge/osm.net.xml.gz"/>
        <route-files value="maps/NinhKieuBridge/osm_pt.rou.xml,maps/NinhKieuBridge/osm.bicycle.trips.xml,maps/NinhKieuBridge/osm.motorcycle.trips.xml,maps/NinhKieuBridge/osm.passenger.trips.xml,maps/NinhKieuBridge/osm.pedestrian.rou.xml"/>
        <additional-files value="maps/NinhKieuBridge/osm.poly.xml.gz,maps/NinhKieuBridge/osm_stops.add.xml,maps/NinhKieuBridge/output.add.xml"/>
    </input>

    <output>
        <tripinfo-output value="maps/NinhKieuBridge/tripinfos.xml"/>
        <stop-output value="maps/NinhKieuBridge/stopinfos.xml"/>
        <statistic-output value="maps/NinhKieuBridge/stats.xml"/>
    </output>

    <processing>
        <ignore-route-errors value="true"/>
        <scale value="7.0"/>
        <tls.actuated.jam-threshold value="30"/>
    </processing>

    <routing>
        <device.rerouting.adaptation-steps value="18"/>
        <device.rerouting.adaptation-interval value="10"/>
    </routing>

    <report>
        <verbose value="true"/>
        <no-warnings value="true"/>
        <no-step-log value="true"/>
    </report>

    <emissions>
        <device.emissions.probability value="1.0"/>
    </emissions>

    <traci_server>
        <remote-port value="38493"/>
    </traci_server>

    <gui_only>
        <gui-settings-file value="maps/NinhKieuBridge/osm.view.xml"/>
        <quit-on-end value="true"/>
        <start value="true"/>
        <delay value="20"/>
    </gui_only>

</sumoConfiguration>
-->

<meandata xmlns:xsi="http://www.w3.org/2001/XMLSchema-instance" xsi:noNamespaceSchemaLocation="http://sumo.dlr.de/xsd/meandata_file.xsd">
    <interval begin="0.00" end="232.00" id="wizard_example">
        <edge id="-1043618989" sampledSeconds="0.00" departed="0" arrived="0" entered="0" left="0" laneChangedFrom="0" laneChangedTo="0"/>
        <edge id="-1062498629#0" sampledSeconds="176.91" traveltime="24.94" overlapTraveltime="25.30" density="2.32" overlapDensity="2.35" laneDensity="2.32" occupancy="1.16" waitingTime="0.00" timeLoss="22.00" speed="13.05" speedRelative="0.94" departed="0" arrived="7" entered="7" left="0" laneChangedFrom="0" laneChangedTo="0" flow="108.62"/>
        <edge id="-1062498629#1" sampledSeconds="47.50" traveltime="1.59" overlapTraveltime="2.14" density="18.39" overlapDensity="26.18" laneDensity="18.39" occupancy="4.54" waitingTime="0.00" timeLoss="19.10" speed="4.75" speedRelative="0.34" departed="0" arrived="0" entered="21" left="21" laneChangedFrom="0" laneChangedTo="0" flow="325.86"/>
        <edge id="-1062498629#10" sampledSeconds="0.00" departed="0" arrived="0" entered="0" left="0" laneChangedFrom="0" laneChangedTo="0"/>
        <edge id="-1062498629#2" sampledSeconds="1210.54" traveltime="42.86" overlapTraveltime="43.15" density="22.24" overlapDensity="22.43" laneDensity="22.24" occupancy="4.74" waitingTime="2.00" timeLoss="375.49" speed="5.44" speedRelative="0.39" departed="0" arrived="7" entered="28" left="21" laneChangedFrom="0" laneChangedTo="0" flow="434.48"/>
        <edge id="-1062498629#3" sampledSeconds="40.33" traveltime="0.98" overlapTraveltime="1.41" density="35.25" overlapDensity="57.95" laneDensity="35.25" occupancy="7.83" waitingTime="1.00" timeLoss="23.81" speed="3.73" speedRelative="0.27" departed="7" arrived="0" entered="22" left="29" laneChangedFrom="0" laneChangedTo="0" flow="388.45"/>
        <edge id="-1062498629#5" sampledSeconds="107.02" traveltime="14.45" overlapTraveltime="15.29" density="2.36" overlapDensity="2.49" laneDensity="2.36" occupancy="1.20" waitingTime="0.00" timeLoss="12.74" speed="12.43" speedRelative="0.89" departed="0" arrived="0" entered="7" left="7" laneChangedFrom="0" laneChangedTo="0" flow="108.62"/>
        <edge id="-1062498629#6" sampledSeconds="46.09" traveltime="7.01" overlapTraveltime="7.36" density="4.32" overlapDensity="4.59" laneDensity="4.32" occupancy="2.23" waitingTime="1.00" timeLoss="25.30" speed="6.55" speedRelative="0.47" departed="7" arrived="0" entered="0" left="7" laneChangedFrom="0" laneChangedTo="0" flow="95.82"/>
        <edge id="-1062498629#7" sampledSeconds="0.00" departed="0" arrived="0" entered="0" left="0" laneChangedFrom="0" laneChangedTo="0"/>
        <edge id="-1062498629#8" sampledSeconds="0.00" departed="0" arrived="0" entered="0" left="0" laneChangedFrom="0" laneChangedTo="0"/>
        <edge id="-1062498629#9" sampledSeconds="0.00" departed="0" arrived="0" entered="0" left="0" laneChangedFrom="0" laneChangedTo="0"/>
        <edge id="-1150062811#0" sampledSeconds="1173.99" traveltime="75.19" overlapTraveltime="76.83" density="49.12" overlapDensity="49.64" laneDensity="49.12" occupancy="18.19" waitingTime="234.00" timeLoss="598.61" speed="1.38" speedRelative="0.49" departed="0" arrived="0" entered="20" left="12" laneChangedFrom="0" laneChangedTo="0" flow="239.73"/>
        <edge id="-1150062811#1" sampledSeconds="475.11" traveltime="72.91" overlapTraveltime="76.88" density="17.00" overlapDensity="17.65" laneDensity="17.00" occupancy="8.49" waitingTime="15.00" timeLoss="212.25" speed="1.57" speedRelative="0.57" departed="0" arrived="0" entered="7" left="4" laneChangedFrom="0" laneChangedTo="0" flow="97.35"/>
        <edge id="-1150062811#2" sampledSeconds="0.00" departed="0" arrived="0" entered="0" left="0" laneChangedFrom="0" laneChangedTo="0"/>
        <edge id="-1150062812#0" sampledSeconds="712.35" traveltime="100.34" overlapTraveltime="104.43" density="15.14" overlapDensity="15.76" laneDensity="15.14" occupancy="7.75" waitingTime="5.00" timeLoss="229.88" speed="1.91" speedRelative="0.69" departed="7" arrived="0" entered="0" left="7" laneChangedFrom="0" laneChangedTo="0" flow="105.78"/>
        <edge id="-1150062812#1" sampledSeconds="368.40" traveltime="52.48" overlapTraveltime="53.93" density="16.61" overlapDensity="17.09" laneDensity="16.61" occupancy="3.71" waitingTime="0.00" timeLoss="127.87" speed="1.76" speedRelative="0.63" departed="7" arrived="0" entered="0" left="7" laneChangedFrom="0" laneChangedTo="0" flow="105.93"/>
        <edge id="-1150062813" sampledSeconds="707.74" traveltime="45.07" overlapTraveltime="47.08" density="37.26" overlapDensity="38.73" laneDensity="37.26" occupancy="14.05" waitingTime="0.00" timeLoss="255.72" speed="1.75" speedRelative="0.63" departed="12" arrived="0" entered="7" left="14" laneChangedFrom="0" laneChangedTo="0" flow="234.37"/>
        <edge id="-1193997327#0" sampledSeconds="47.14" traveltime="6.21" overlapTraveltime="6.73" density="7.27" overlapDensity="7.89" laneDensity="7.27" occupancy="1.18" waitingTime="0.00" timeLoss="11.97" speed="4.06" speedRelative="0.73" departed="0" arrived="0" entered="7" left="7" laneChangedFrom="0" laneChangedTo="0" flow="108.62"/>
        <edge id="-1193997327#2" sampledSeconds="62.93" traveltime="8.67" overlapTraveltime="8.99" density="6.28" overlapDensity="6.52" laneDensity="6.28" occupancy="1.00" waitingTime="0.00" timeLoss="8.06" speed="4.81" speedRelative="0.86" departed="0" arrived="0" entered="7" left="7" laneChangedFrom="0" laneChangedTo="0" flow="108.62"/>
        <edge id="-1193997327#3" sampledSeconds="0.00" departed="0" arrived="0" entered="0" left="0" laneChangedFrom="0" laneChangedTo="0"/>
        <edge id="-1193997327#4" sampledSeconds="0.00" departed="0" arrived="0" entered="0" left="0" laneChangedFrom="0" laneChangedTo="0"/>
        <edge id="-1193997328#0" sampledSeconds="0.00" departed="0" arrived="0" entered="0" left="0" laneChangedFrom="0" laneChangedTo="0"/>
        <edge id="-1193997328#1" sampledSeconds="0.00" departed="0" arrived="0" entered="0" left="0" laneChangedFrom="0" laneChangedTo="0"/>
        <edge id="-1193997328#2" sampledSeconds="0.00" departed="0" arrived="0" entered="0" left="0" laneChangedFrom="0" laneChangedTo="0"/>
        <edge id="-1193997329" sampledSeconds="0.00" departed="0" arrived="0" entered="0" left="0" laneChangedFrom="0" laneChangedTo="0"/>
        <edge id="-1211918059#0" sampledSeconds="0.00" departed="0" arrived="0" entered="0" left="0" laneChangedFrom="0" laneChangedTo="0"/>
        <edge id="-1211918059#1" sampledSeconds="0.00" departed="0" arrived="0" entered="0" left="0" laneChangedFrom="0" laneChangedTo="0"/>
        <edge id="-1211928057#0" sampledSeconds="126.08" traveltime="17.32" overlapTraveltime="18.01" density="19.16" overlapDensity="19.93" laneDensity="19.16" occupancy="3.09" waitingTime="59.00" timeLoss="90.13" speed="1.60" speedRelative="0.29" departed="0" arrived="0" entered="7" left="7" laneChangedFrom="0" laneChangedTo="0" flow="108.62"/>
        <edge id="-1211928057#1" sampledSeconds="0.00" departed="0" arrived="0" entered="0" left="0" laneChangedFrom="0" laneChangedTo="0"/>
        <edge id="-1211928058#0" sampledSeconds="0.00" departed="0" arrived="0" entered="0" left="0" laneChangedFrom="0" laneChangedTo="0"/>
        <edge id="-1211928058#1" sampledSeconds="0.00" departed="0" arrived="0" entered="0" left="0" laneChangedFrom="0" laneChangedTo="0"/>
        <edge id="-1211988156" sampledSeconds="0.00" departed="0" arrived="0" entered="0" left="0" laneChangedFrom="0" laneChangedTo="0"/>
        <edge id="-1284876490#0" sampledSeconds="68.41" traveltime="5.80" overlapTraveltime="6.22" density="3.55" overlapDensity="3.81" laneDensity="3.55" occupancy="1.78" waitingTime="0.00" timeLoss="7.27" speed="13.26" speedRelative="0.95" departed="0" arrived="0" entered="11" left="11" laneChangedFrom="0" laneChangedTo="0" flow="170.69"/>
        <edge id="-1284876490#1" sampledSeconds="47.11" traveltime="3.55" overlapTraveltime="3.94" density="5.34" overlapDensity="5.86" laneDensity="5.34" occupancy="2.51" waitingTime="0.00" timeLoss="14.90" speed="10.06" speedRelative="0.72" departed="0" arrived="0" entered="13" left="11" laneChangedFrom="0" laneChangedTo="0" flow="187.52"/>
        <edge id="-1320722753#0" sampledSeconds="68.76" traveltime="9.50" overlapTraveltime="9.82" density="6.31" overlapDensity="6.52" laneDensity="6.31" occupancy="1.01" waitingTime="0.00" timeLoss="11.22" speed="4.79" speedRelative="0.86" departed="0" arrived="0" entered="7" left="7" laneChangedFrom="0" laneChangedTo="0" flow="108.62"/>
        <edge id="-1320722753#1" sampledSeconds="14.37" traveltime="1.72" overlapTraveltime="2.05" density="7.14" overlapDensity="8.54" laneDensity="7.14" occupancy="1.13" waitingTime="0.00" timeLoss="3.54" speed="4.31" speedRelative="0.78" departed="0" arrived="0" entered="7" left="7" laneChangedFrom="0" laneChangedTo="0" flow="108.62"/>
        <edge id="-1351702507#0" sampledSeconds="0.00" departed="0" arrived="0" entered="0" left="0" laneChangedFrom="0" laneChangedTo="0"/>
        <edge id="-1351702507#1" sampledSeconds="0.00" departed="0" arrived="0" entered="0" left="0" laneChangedFrom="0" laneChangedTo="0"/>
        <edge id="-1351702507#2" sampledSeconds="0.00" departed="0" arrived="0" entered="0" left="0" laneChangedFrom="0" laneChangedTo="0"/>
        <edge id="-1351702507#3" sampledSeconds="0.00" departed="0" arrived="0" entered="0" left="0" laneChangedFrom="0" laneChangedTo="0"/>
        <edge id="-166333704#0" sampledSeconds="79.68" traveltime="6.29" overlapTraveltime="6.47" density="23.49" overlapDensity="26.44" laneDensity="23.49" occupancy="7.18" waitingTime="28.00" timeLoss="62.94" speed="2.47" speedRelative="0.18" departed="7" arrived="0" entered="7" left="14" laneChangedFrom="0" laneChangedTo="0" flow="174.60"/>
        <edge id="-166333704#1" sampledSeconds="88.57" traveltime="12.33" overlapTraveltime="12.65" density="3.42" overlapDensity="3.50" laneDensity="3.42" occupancy="0.75" waitingTime="1.00" timeLoss="27.43" speed="8.78" speedRelative="0.63" departed="0" arrived="0" entered="7" left="7" laneChangedFrom="0" laneChangedTo="0" flow="108.62"/>
        <edge id="-166333704#2" sampledSeconds="7.78" traveltime="0.87" overlapTraveltime="1.11" density="4.59" overlapDensity="5.87" laneDensity="4.59" occupancy="0.90" waitingTime="0.00" timeLoss="3.43" speed="7.12" speedRelative="0.51" departed="0" arrived="0" entered="7" left="7" laneChangedFrom="0" laneChangedTo="0" flow="108.62"/>
        <edge id="-43140826#0" sampledSeconds="145.20" traveltime="19.12" overlapTraveltime="20.74" density="2.72" overlapDensity="2.95" laneDensity="2.72" occupancy="1.40" waitingTime="0.00" timeLoss="29.27" speed="10.48" speedRelative="0.75" departed="0" arrived="0" entered="7" left="7" laneChangedFrom="0" laneChangedTo="0" flow="108.62"/>
        <edge id="-43140826#1" sampledSeconds="70.21" traveltime="10.21" overlapTraveltime="10.58" density="3.15" overlapDensity="3.28" laneDensity="3.15" occupancy="1.61" waitingTime="0.00" timeLoss="23.47" speed="9.19" speedRelative="0.66" departed="7" arrived="0" entered="0" left="7" laneChangedFrom="0" laneChangedTo="0" flow="102.62"/>
        <edge id="-43140826#2" sampledSeconds="218.70" traveltime="17.68" overlapTraveltime="21.98" density="6.30" overlapDensity="7.78" laneDensity="6.30" occupancy="2.79" waitingTime="48.00" timeLoss="104.80" speed="5.71" speedRelative="0.41" departed="0" arrived="0" entered="14" left="7" laneChangedFrom="0" laneChangedTo="0" flow="155.39"/>
        <edge id="-43140831#0" sampledSeconds="9.46" traveltime="9.07" overlapTraveltime="9.46" density="0.63" overlapDensity="0.66" laneDensity="0.63" occupancy="0.29" waitingTime="0.00" timeLoss="4.32" speed="7.06" speedRelative="0.51" departed="1" arrived="0" entered="0" left="1" laneChangedFrom="0" laneChangedTo="0" flow="15.52"/>
        <edge id="-43140831#1" sampledSeconds="165.98" traveltime="23.46" overlapTraveltime="23.78" density="6.61" overlapDensity="6.68" laneDensity="6.61" occupancy="1.06" waitingTime="0.00" timeLoss="27.58" speed="4.57" speedRelative="0.33" departed="0" arrived="7" entered="7" left="0" laneChangedFrom="0" laneChangedTo="0" flow="108.62"/>
        <edge id="-43140831#2" sampledSeconds="73.01" traveltime="5.35" overlapTraveltime="5.75" density="12.71" overlapDensity="13.55" laneDensity="12.71" occupancy="2.03" waitingTime="1.00" timeLoss="15.77" speed="4.32" speedRelative="0.31" departed="0" arrived="0" entered="14" left="11" laneChangedFrom="0" laneChangedTo="0" flow="198.73"/>
        <edge id="-43140831#3" sampledSeconds="178.64" traveltime="10.72" overlapTraveltime="11.06" density="14.42" overlapDensity="14.81" laneDensity="14.42" occupancy="2.30" waitingTime="0.00" timeLoss="22.56" speed="4.85" speedRelative="0.35" departed="0" arrived="0" entered="17" left="14" laneChangedFrom="0" laneChangedTo="0" flow="251.65"/>
        <edge id="-43140831#4" sampledSeconds="267.06" traveltime="14.53" overlapTraveltime="14.85" density="15.84" overlapDensity="16.17" laneDensity="15.84" occupancy="2.53" waitingTime="0.00" timeLoss="31.13" speed="4.90" speedRelative="0.35" departed="0" arrived="0" entered="18" left="17" laneChangedFrom="0" laneChangedTo="0" flow="279.31"/>
        <edge id="-43140831#5" sampledSeconds="351.59" traveltime="17.65" overlapTraveltime="17.97" density="17.48" overlapDensity="17.77" laneDensity="17.48" occupancy="2.80" waitingTime="0.00" timeLoss="44.78" speed="4.83" speedRelative="0.35" departed="7" arrived="0" entered="14" left="18" laneChangedFrom="0" laneChangedTo="0" flow="304.08"/>
        <edge id="-43140831#6" sampledSeconds="67.90" traveltime="4.55" overlapTraveltime="4.85" density="11.59" overlapDensity="12.36" laneDensity="11.59" occupancy="1.85" waitingTime="0.00" timeLoss="4.38" speed="5.21" speedRelative="0.38" departed="0" arrived="0" entered="14" left="14" laneChangedFrom="0" laneChangedTo="0" flow="217.24"/>
        <edge id="-443405652#0" sampledSeconds="123.51" traveltime="17.29" overlapTraveltime="17.64" density="6.41" overlapDensity="6.54" laneDensity="6.41" occupancy="1.03" waitingTime="0.00" timeLoss="13.72" speed="4.70" speedRelative="0.34" departed="0" arrived="0" entered="7" left="7" laneChangedFrom="0" laneChangedTo="0" flow="108.62"/>
        <edge id="-443405652#1" sampledSeconds="0.00" departed="0" arrived="0" entered="0" left="0" laneChangedFrom="0" laneChangedTo="0"/>
        <edge id="-443842819#0" sampledSeconds="0.00" departed="0" arrived="0" entered="0" left="0" laneChangedFrom="0" laneChangedTo="0"/>
        <edge id="-443842819#1" sampledSeconds="0.00" departed="0" arrived="0" entered="0" left="0" laneChangedFrom="0" laneChangedTo="0"/>
        <edge id="-443842820" sampledSeconds="94.62" traveltime="38.77" overlapTraveltime="39.07" density="1.97" overlapDensity="1.97" laneDensity="1.97" occupancy="0.31" waitingTime="0.00" timeLoss="7.71" speed="5.33" speedRelative="0.38" departed="0" arrived="0" entered="7" left="0" laneChangedFrom="0" laneChangedTo="0" flow="37.87"/>
        <edge id="-443842821#0" sampledSeconds="0.00" departed="0" arrived="0" entered="0" left="0" laneChangedFrom="0" laneChangedTo="0"/>
        <edge id="-443842821#1" sampledSeconds="0.00" departed="0" arrived="0" entered="0" left="0" laneChangedFrom="0" laneChangedTo="0"/>
        <edge id="-696616385" sampledSeconds="0.00" departed="0" arrived="0" entered="0" left="0" laneChangedFrom="0" laneChangedTo="0"/>
        <edge id="-696616468" sampledSeconds="0.00" departed="0" arrived="0" entered="0" left="0" laneChangedFrom="0" laneChangedTo="0"/>
        <edge id="-877366030#0" sampledSeconds="0.00" departed="0" arrived="0" entered="0" left="0" laneChangedFrom="0" laneChangedTo="0"/>
        <edge id="-877366030#1" sampledSeconds="10.00" traveltime="47.10" overlapTraveltime="47.78" density="0.39" overlapDensity="0.39" laneDensity="0.39" occupancy="0.06" waitingTime="0.00" timeLoss="6.19" speed="2.36" speedRelative="0.42" departed="3" arrived="0" entered="0" left="0" laneChangedFrom="0" laneChangedTo="0" flow="3.29"/>
        <edge id="-877408687" sampledSeconds="0.00" departed="0" arrived="0" entered="0" left="0" laneChangedFrom="0" laneChangedTo="0"/>
        <edge id="-89608582#1" sampledSeconds="0.00" departed="0" arrived="0" entered="0" left="0" laneChangedFrom="0" laneChangedTo="0"/>
        <edge id="-89608602" sampledSeconds="0.00" departed="0" arrived="0" entered="0" left="0" laneChangedFrom="0" laneChangedTo="0"/>
        <edge id="-89608607" sampledSeconds="0.00" departed="0" arrived="0" entered="0" left="0" laneChangedFrom="0" laneChangedTo="0"/>
        <edge id="-89608638#0" sampledSeconds="0.00" departed="0" arrived="0" entered="0" left="0" laneChangedFrom="0" laneChangedTo="0"/>
        <edge id="-89608638#1" sampledSeconds="0.00" departed="0" arrived="0" entered="0" left="0" laneChangedFrom="0" laneChangedTo="0"/>
        <edge id="-89608638#3" sampledSeconds="0.00" departed="0" arrived="0" entered="0" left="0" laneChangedFrom="0" laneChangedTo="0"/>
        <edge id="-90047484#0" sampledSeconds="0.00" departed="0" arrived="0" entered="0" left="0" laneChangedFrom="0" laneChangedTo="0"/>
        <edge id="-90047484#2" sampledSeconds="0.00" departed="0" arrived="0" entered="0" left="0" laneChangedFrom="0" laneChangedTo="0"/>
        <edge id="-90047510#0" sampledSeconds="422.02" traveltime="59.95" overlapTraveltime="60.29" density="6.33" overlapDensity="6.36" laneDensity="6.33" occupancy="1.01" waitingTime="0.00" timeLoss="70.35" speed="4.77" speedRelative="0.34" departed="0" arrived="0" entered="7" left="7" laneChangedFrom="0" laneChangedTo="0" flow="108.62"/>
        <edge id="-90047510#1" sampledSeconds="13.68" traveltime="1.63" overlapTraveltime="1.95" density="7.26" overlapDensity="8.70" laneDensity="7.26" occupancy="1.12" waitingTime="0.00" timeLoss="3.43" speed="4.29" speedRelative="0.31" departed="0" arrived="0" entered="7" left="7" laneChangedFrom="0" laneChangedTo="0" flow="108.62"/>
        <edge id="-90047539#1" sampledSeconds="0.00" departed="0" arrived="0" entered="0" left="0" laneChangedFrom="0" laneChangedTo="0"/>
        <edge id="-90047550#0" sampledSeconds="0.00" departed="0" arrived="0" entered="0" left="0" laneChangedFrom="0" laneChangedTo="0"/>
        <edge id="-90047550#1" sampledSeconds="0.00" departed="0" arrived="0" entered="0" left="0" laneChangedFrom="0" laneChangedTo="0"/>
        <edge id="-90047588" sampledSeconds="271.71" traveltime="19.44" overlapTraveltime="19.77" density="13.22" overlapDensity="13.41" laneDensity="13.22" occupancy="2.12" waitingTime="0.00" timeLoss="49.51" speed="4.50" speedRelative="0.32" departed="7" arrived="0" entered="7" left="13" laneChangedFrom="0" laneChangedTo="0" flow="213.70"/>
        <edge id="-90047592#0" sampledSeconds="0.00" departed="0" arrived="0" entered="0" left="0" laneChangedFrom="0" laneChangedTo="0"/>
        <edge id="-90047592#1" sampledSeconds="0.00" departed="0" arrived="0" entered="0" left="0" laneChangedFrom="0" laneChangedTo="0"/>
        <edge id="-952052138#0" sampledSeconds="8.92" traveltime="0.07" overlapTraveltime="1.30" density="0.83" overlapDensity="103.89" laneDensity="0.83" occupancy="3.71" waitingTime="0.00" timeLoss="5.75" speed="2.15" speedRelative="0.15" departed="7" arrived="0" entered="1" left="8" laneChangedFrom="0" laneChangedTo="0" flow="15.52"/>
        <edge id="-952053680#0" sampledSeconds="0.00" departed="0" arrived="0" entered="0" left="0" laneChangedFrom="0" laneChangedTo="0"/>
        <edge id="-952053680#1" sampledSeconds="0.00" departed="0" arrived="0" entered="0" left="0" laneChangedFrom="0" laneChangedTo="0"/>
        <edge id="-952053681#0" sampledSeconds="0.00" departed="0" arrived="0" entered="0" left="0" laneChangedFrom="0" laneChangedTo="0"/>
        <edge id="-952053681#1" sampledSeconds="0.00" departed="0" arrived="0" entered="0" left="0" laneChangedFrom="0" laneChangedTo="0"/>
        <edge id="-952053681#2" sampledSeconds="0.00" departed="0" arrived="0" entered="0" left="0" laneChangedFrom="0" laneChangedTo="0"/>
        <edge id="-952053681#3" sampledSeconds="0.00" departed="0" arrived="0" entered="0" left="0" laneChangedFrom="0" laneChangedTo="0"/>
        <edge id="-952670884" sampledSeconds="0.00" departed="0" arrived="0" entered="0" left="0" laneChangedFrom="0" laneChangedTo="0"/>
        <edge id="-952670885#0" sampledSeconds="0.20" traveltime="0.02" overlapTraveltime="0.20" density="0.37" overlapDensity="4.39" laneDensity="0.37" occupancy="0.08" waitingTime="0.00" timeLoss="0.03" speed="11.78" speedRelative="0.85" departed="0" arrived="1" entered="1" left="0" laneChangedFrom="0" laneChangedTo="0" flow="15.52"/>
        <edge id="-952670885#1" sampledSeconds="9.02" traveltime="8.83" overlapTraveltime="9.02" density="0.35" overlapDensity="0.36" laneDensity="0.35" occupancy="0.08" waitingTime="0.00" timeLoss="1.06" speed="12.14" speedRelative="0.87" departed="0" arrived="0" entered="1" left="1" laneChangedFrom="0" laneChangedTo="0" flow="15.52"/>
        <edge id="-952670885#2" sampledSeconds="5.26" traveltime="5.01" overlapTraveltime="5.17" density="0.40" overlapDensity="0.41" laneDensity="0.40" occupancy="0.08" waitingTime="0.00" timeLoss="0.99" speed="11.16" speedRelative="0.80" departed="0" arrived="0" entered="2" left="1" laneChangedFrom="0" laneChangedTo="0" flow="15.80"/>
        <edge id="-954814120#0" sampledSeconds="0.00" departed="0" arrived="0" entered="0" left="0" laneChangedFrom="0" laneChangedTo="0"/>
        <edge id="-954814966#0" sampledSeconds="0.00" departed="0" arrived="0" entered="0" left="0" laneChangedFrom="0" laneChangedTo="0"/>
        <edge id="-954814966#1" sampledSeconds="0.00" departed="0" arrived="0" entered="0" left="0" laneChangedFrom="0" laneChangedTo="0"/>
        <edge id="-954814967" sampledSeconds="0.00" departed="0" arrived="0" entered="0" left="0" laneChangedFrom="0" laneChangedTo="0"/>
        <edge id="-954836212" sampledSeconds="0.00" departed="0" arrived="0" entered="0" left="0" laneChangedFrom="0" laneChangedTo="0"/>
        <edge id="-958114968" sampledSeconds="0.00" departed="0" arrived="0" entered="0" left="0" laneChangedFrom="0" laneChangedTo="0"/>
        <edge id="-967499795" sampledSeconds="0.00" departed="0" arrived="0" entered="0" left="0" laneChangedFrom="0" laneChangedTo="0"/>
        <edge id="1043618989" sampledSeconds="0.00" departed="0" arrived="0" entered="0" left="0" laneChangedFrom="0" laneChangedTo="0"/>
        <edge id="1062498629#0" sampledSeconds="0.00" departed="0" arrived="0" entered="0" left="0" laneChangedFrom="0" laneChangedTo="0"/>
        <edge id="1062498629#1" sampledSeconds="28.44" traveltime="1.32" overlapTraveltime="1.74" density="12.26" overlapDensity="15.68" laneDensity="12.26" occupancy="3.62" waitingTime="0.00" timeLoss="14.92" speed="6.46" speedRelative="0.46" departed="4" arrived="11" entered="14" left="7" laneChangedFrom="0" laneChangedTo="0" flow="261.05"/>
        <edge id="1062498629#10" sampledSeconds="17.70" traveltime="2.11" overlapTraveltime="2.53" density="3.37" overlapDensity="4.04" laneDensity="3.37" occupancy="0.78" waitingTime="0.00" timeLoss="4.06" speed="8.33" speedRelative="0.60" departed="0" arrived="0" entered="7" left="7" laneChangedFrom="0" laneChangedTo="0" flow="108.62"/>
        <edge id="1062498629#2" sampledSeconds="74.91" traveltime="18.46" overlapTraveltime="18.93" density="1.37" overlapDensity="1.39" laneDensity="1.37" occupancy="0.67" waitingTime="0.00" timeLoss="7.79" speed="12.53" speedRelative="0.90" departed="0" arrived="0" entered="7" left="2" laneChangedFrom="0" laneChangedTo="0" flow="62.04"/>
        <edge id="1062498629#3" sampledSeconds="2.86" traveltime="0.47" overlapTraveltime="1.43" density="1.35" overlapDensity="4.11" laneDensity="1.35" occupancy="0.82" waitingTime="0.00" timeLoss="1.08" speed="5.60" speedRelative="0.40" departed="0" arrived="1" entered="2" left="1" laneChangedFrom="0" laneChangedTo="0" flow="31.03"/>
        <edge id="1062498629#5" sampledSeconds="116.85" traveltime="16.73" overlapTraveltime="16.90" density="2.72" overlapDensity="2.75" laneDensity="2.72" occupancy="0.60" waitingTime="0.00" timeLoss="23.19" speed="10.98" speedRelative="0.79" departed="7" arrived="0" entered="0" left="7" laneChangedFrom="0" laneChangedTo="0" flow="107.26"/>
        <edge id="1062498629#6" sampledSeconds="25.68" traveltime="3.50" overlapTraveltime="3.67" density="2.44" overlapDensity="2.56" laneDensity="2.44" occupancy="0.54" waitingTime="0.00" timeLoss="2.44" speed="12.39" speedRelative="0.89" departed="0" arrived="0" entered="7" left="7" laneChangedFrom="0" laneChangedTo="0" flow="108.62"/>
        <edge id="1062498629#7" sampledSeconds="16.32" traveltime="2.10" overlapTraveltime="2.33" density="2.71" overlapDensity="3.00" laneDensity="2.71" occupancy="0.60" waitingTime="0.00" timeLoss="2.39" speed="10.99" speedRelative="0.79" departed="0" arrived="0" entered="7" left="7" laneChangedFrom="0" laneChangedTo="0" flow="108.62"/>
        <edge id="1062498629#8" sampledSeconds="52.35" traveltime="7.30" overlapTraveltime="7.48" density="2.55" overlapDensity="2.61" laneDensity="2.55" occupancy="0.56" waitingTime="0.00" timeLoss="6.99" speed="11.87" speedRelative="0.85" departed="0" arrived="0" entered="7" left="7" laneChangedFrom="0" laneChangedTo="0" flow="108.62"/>
        <edge id="1062498629#9" sampledSeconds="40.11" traveltime="5.55" overlapTraveltime="5.73" density="2.53" overlapDensity="2.61" laneDensity="2.53" occupancy="0.56" waitingTime="0.00" timeLoss="5.12" speed="11.95" speedRelative="0.86" departed="0" arrived="0" entered="7" left="7" laneChangedFrom="0" laneChangedTo="0" flow="108.62"/>
        <edge id="1125912897" sampledSeconds="0.00" departed="0" arrived="0" entered="0" left="0" laneChangedFrom="0" laneChangedTo="0"/>
        <edge id="1150062811#0" sampledSeconds="697.79" traveltime="90.84" overlapTraveltime="95.29" density="29.13" overlapDensity="29.50" laneDensity="29.13" occupancy="14.46" waitingTime="240.00" timeLoss="432.08" speed="1.12" speedRelative="0.40" departed="6" arrived="0" entered="7" left="2" laneChangedFrom="0" laneChangedTo="0" flow="117.68"/>
        <edge id="1150062811#1" sampledSeconds="0.00" departed="0" arrived="0" entered="0" left="0" laneChangedFrom="0" laneChangedTo="0"/>
        <edge id="1150062811#2" sampledSeconds="0.00" departed="1" arrived="0" entered="0" left="0" laneChangedFrom="0" laneChangedTo="0"/>
        <edge id="1150062812#0" sampledSeconds="0.00" departed="0" arrived="0" entered="0" left="0" laneChangedFrom="0" laneChangedTo="0"/>
        <edge id="1150062812#1" sampledSeconds="0.00" departed="0" arrived="0" entered="0" left="0" laneChangedFrom="0" laneChangedTo="0"/>
        <edge id="1150062813" sampledSeconds="0.00" departed="0" arrived="0" entered="0" left="0" laneChangedFrom="0" laneChangedTo="0"/>
        <edge id="1193997327#0" sampledSeconds="0.00" departed="0" arrived="0" entered="0" left="0" laneChangedFrom="0" laneChangedTo="0"/>
        <edge id="1193997327#1" sampledSeconds="0.00" departed="0" arrived="0" entered="0" left="0" laneChangedFrom="0" laneChangedTo="0"/>
        <edge id="1193997327#3" sampledSeconds="0.00" departed="0" arrived="0" entered="0" left="0" laneChangedFrom="0" laneChangedTo="0"/>
        <edge id="1193997327#4" sampledSeconds="0.00" departed="0" arrived="0" entered="0" left="0" laneChangedFrom="0" laneChangedTo="0"/>
        <edge id="1193997328#0" sampledSeconds="0.00" departed="0" arrived="0" entered="0" left="0" laneChangedFrom="0" laneChangedTo="0"/>
        <edge id="1193997328#1" sampledSeconds="0.00" departed="0" arrived="0" entered="0" left="0" laneChangedFrom="0" laneChangedTo="0"/>
        <edge id="1193997328#2" sampledSeconds="59.43" traveltime="8.14" overlapTraveltime="8.49" density="6.43" overlapDensity="6.70" laneDensity="6.43" occupancy="1.03" waitingTime="0.00" timeLoss="8.86" speed="4.69" speedRelative="0.84" departed="0" arrived="0" entered="7" left="7" laneChangedFrom="0" laneChangedTo="0" flow="108.62"/>