<?xml version="1.0" encoding="UTF-8"?>

<!-- generated on 2026-02-01T21:08:25.229220+07:00 by Eclipse SUMO sumo v1_25_0+0904-59bbc76848e
<sumoConfiguration xmlns:xsi="http://www.w3.org/2001/XMLSchema-instance" xsi:noNamespaceSchemaLocation="http://sumo.dlr.de/xsd/sumoConfiguration.xsd">

    <input>
        <net-file value="maps/NinhKieuBridge/osm.net.xml.gz"/>
        <route-files value="maps/NinhKieuBridge/osm_pt.rou.xml,maps/NinhKieuBridge/osm.bicycle.trips.xml,maps/NinhKieuBridge/osm.motorcycle.trips.xml,maps/NinhKieuBridge/osm.passenger.trips.xml,maps/NinhKieuBridge/osm.pedestrian.rou.xml"/>
        <additional-files value="maps/NinhKieuBridge/osm.poly.xml.gz,maps/NinhKieuBridge/osm_stops.add.xml,maps/NinhKieuBridge/output.add.xml"/>
    </input>

    <output>
        <tripinfo-output value="maps/NinhKieuBridge/tripinfos.xml"/>
        <stop-output value="maps/NinhKieuBridge/stopinfos.xml"/>
        <statistic-output value="maps/NinhKieuBridge/stats.xml"/>
    </output>

    <processing>
        <ignore-route-errors value="true"/>
        <scale value="5.0"/>
        <tls.actuated.jam-threshold value="30"/>
    </processing>

    <routing>
        <device.rerouting.adaptation-steps value="18"/>
        <device.rerouting.adaptation-interval value="10"/>
    </routing>

    <report>
        <verbose value="true"/>
        <no-warnings value="true"/>
        <no-step-log value="true"/>
    </report>

    <emissions>
        <device.emissions.probability value="1.0"/>
    </emissions>

    <traci_server>
        <remote-port value="38321"/>
    </traci_server>

    <gui_only>
        <gui-settings-file value="maps/NinhKieuBridge/osm.view.xml"/>
        <quit-on-end value="true"/>
        <start value="true"/>
        <delay value="20"/>
    </gui_only>

</sumoConfiguration>
-->

<meandata xmlns:xsi="http://www.w3.org/2001/XMLSchema-instance" xsi:noNamespaceSchemaLocation="http://sumo.dlr.de/xsd/meandata_file.xsd">
    <interval begin="0.00" end="327.00" id="wizard_example">
        <edge id="-1043618989" sampledSeconds="0.00" departed="0" arrived="0" entered="0" left="0" laneChangedFrom="0" laneChangedTo="0"/>
        <edge id="-1062498629#0" sampledSeconds="160.26" traveltime="26.58" overlapTraveltime="26.99" density="1.49" overlapDensity="1.51" laneDensity="1.49" occupancy="0.74" waitingTime="0.00" timeLoss="10.89" speed="12.23" speedRelative="0.88" departed="0" arrived="5" entered="10" left="0" laneChangedFrom="0" laneChangedTo="0" flow="65.72"/>
        <edge id="-1062498629#1" sampledSeconds="29.98" traveltime="1.44" overlapTraveltime="1.91" density="8.46" overlapDensity="11.72" laneDensity="8.46" occupancy="2.08" waitingTime="0.00" timeLoss="9.17" speed="5.38" speedRelative="0.39" departed="0" arrived="0" entered="15" left="15" laneChangedFrom="0" laneChangedTo="0" flow="165.14"/>
        <edge id="-1062498629#10" sampledSeconds="12.46" traveltime="2.21" overlapTraveltime="2.70" density="1.79" overlapDensity="2.02" laneDensity="1.79" occupancy="0.81" waitingTime="0.00" timeLoss="4.75" speed="8.84" speedRelative="0.64" departed="0" arrived="5" entered="5" left="0" laneChangedFrom="0" laneChangedTo="0" flow="55.05"/>
        <edge id="-1062498629#2" sampledSeconds="951.99" traveltime="37.71" overlapTraveltime="37.98" density="12.40" overlapDensity="12.52" laneDensity="12.40" occupancy="3.01" waitingTime="1.00" timeLoss="276.09" speed="6.19" speedRelative="0.45" departed="0" arrived="10" entered="25" left="15" laneChangedFrom="0" laneChangedTo="0" flow="275.23"/>
        <edge id="-1062498629#3" sampledSeconds="36.62" traveltime="0.91" overlapTraveltime="1.49" density="21.37" overlapDensity="37.33" laneDensity="21.37" occupancy="5.42" waitingTime="0.00" timeLoss="21.69" speed="4.00" speedRelative="0.29" departed="5" arrived="1" entered="21" left="25" laneChangedFrom="0" laneChangedTo="0" flow="254.75"/>
        <edge id="-1062498629#5" sampledSeconds="79.72" traveltime="14.96" overlapTraveltime="15.94" density="1.24" overlapDensity="1.32" laneDensity="1.24" occupancy="0.63" waitingTime="0.00" timeLoss="11.69" speed="11.92" speedRelative="0.86" departed="0" arrived="0" entered="5" left="5" laneChangedFrom="0" laneChangedTo="0" flow="55.05"/>
        <edge id="-1062498629#6" sampledSeconds="33.09" traveltime="7.05" overlapTraveltime="7.40" density="2.20" overlapDensity="2.34" laneDensity="2.20" occupancy="1.13" waitingTime="1.00" timeLoss="18.04" speed="6.52" speedRelative="0.47" departed="5" arrived="0" entered="0" left="5" laneChangedFrom="0" laneChangedTo="0" flow="48.56"/>
        <edge id="-1062498629#7" sampledSeconds="0.00" departed="0" arrived="0" entered="0" left="0" laneChangedFrom="0" laneChangedTo="0"/>
        <edge id="-1062498629#8" sampledSeconds="0.00" departed="0" arrived="0" entered="0" left="0" laneChangedFrom="0" laneChangedTo="0"/>
        <edge id="-1062498629#9" sampledSeconds="0.00" departed="0" arrived="0" entered="0" left="0" laneChangedFrom="0" laneChangedTo="0"/>
        <edge id="-1150062811#0" sampledSeconds="1585.08" traveltime="60.77" overlapTraveltime="62.86" density="46.73" overlapDensity="47.55" laneDensity="46.73" occupancy="21.03" waitingTime="64.00" timeLoss="634.87" speed="1.69" speedRelative="0.61" departed="0" arrived="5" entered="31" left="16" laneChangedFrom="0" laneChangedTo="0" flow="282.23"/>
        <edge id="-1150062811#1" sampledSeconds="634.66" traveltime="65.74" overlapTraveltime="68.82" density="16.15" overlapDensity="16.73" laneDensity="16.15" occupancy="8.04" waitingTime="0.00" timeLoss="231.56" speed="1.76" speedRelative="0.63" departed="0" arrived="0" entered="10" left="7" laneChangedFrom="0" laneChangedTo="0" flow="102.58"/>
        <edge id="-1150062811#2" sampledSeconds="86.58" traveltime="13.88" overlapTraveltime="17.32" density="8.34" overlapDensity="10.41" laneDensity="8.34" occupancy="4.38" waitingTime="8.00" timeLoss="34.83" speed="1.76" speedRelative="0.63" departed="0" arrived="0" entered="5" left="5" laneChangedFrom="0" laneChangedTo="0" flow="55.05"/>
        <edge id="-1150062812#0" sampledSeconds="543.54" traveltime="107.32" overlapTraveltime="111.56" density="8.20" overlapDensity="8.53" laneDensity="8.20" occupancy="4.17" waitingTime="11.00" timeLoss="176.03" speed="1.79" speedRelative="0.64" departed="5" arrived="0" entered="0" left="5" laneChangedFrom="0" laneChangedTo="0" flow="53.60"/>
        <edge id="-1150062812#1" sampledSeconds="221.63" traveltime="44.42" overlapTraveltime="45.42" density="7.13" overlapDensity="7.29" laneDensity="7.13" occupancy="1.59" waitingTime="1.00" timeLoss="63.15" speed="2.09" speedRelative="0.75" departed="5" arrived="0" entered="0" left="5" laneChangedFrom="0" laneChangedTo="0" flow="53.68"/>
        <edge id="-1150062813" sampledSeconds="645.99" traveltime="42.45" overlapTraveltime="44.96" density="23.65" overlapDensity="25.08" laneDensity="23.65" occupancy="10.10" waitingTime="16.00" timeLoss="217.91" speed="1.84" speedRelative="0.66" departed="10" arrived="0" entered="5" left="15" laneChangedFrom="0" laneChangedTo="0" flow="158.01"/>
        <edge id="-1193997327#0" sampledSeconds="68.98" traveltime="6.71" overlapTraveltime="7.12" density="7.70" overlapDensity="8.19" laneDensity="7.70" occupancy="1.26" waitingTime="0.00" timeLoss="19.63" speed="3.84" speedRelative="0.69" departed="5" arrived="0" entered="5" left="10" laneChangedFrom="0" laneChangedTo="0" flow="106.46"/>
        <edge id="-1193997327#2" sampledSeconds="42.51" traveltime="8.19" overlapTraveltime="8.50" density="3.01" overlapDensity="3.12" laneDensity="3.01" occupancy="0.48" waitingTime="0.00" timeLoss="4.44" speed="5.08" speedRelative="0.91" departed="0" arrived="0" entered="5" left="5" laneChangedFrom="0" laneChangedTo="0" flow="55.05"/>
        <edge id="-1193997327#3" sampledSeconds="0.00" departed="0" arrived="0" entered="0" left="0" laneChangedFrom="0" laneChangedTo="0"/>
        <edge id="-1193997327#4" sampledSeconds="0.00" departed="0" arrived="0" entered="0" left="0" laneChangedFrom="0" laneChangedTo="0"/>
        <edge id="-1193997328#0" sampledSeconds="0.00" departed="0" arrived="0" entered="0" left="0" laneChangedFrom="0" laneChangedTo="0"/>
        <edge id="-1193997328#1" sampledSeconds="29.11" traveltime="15.08" overlapTraveltime="15.41" density="1.23" overlapDensity="1.23" laneDensity="1.23" occupancy="0.19" waitingTime="0.00" timeLoss="3.32" speed="4.79" speedRelative="0.86" departed="0" arrived="0" entered="5" left="0" laneChangedFrom="0" laneChangedTo="0" flow="21.25"/>
        <edge id="-1193997328#2" sampledSeconds="41.53" traveltime="7.98" overlapTraveltime="8.31" density="3.19" overlapDensity="3.32" laneDensity="3.19" occupancy="0.51" waitingTime="0.00" timeLoss="5.41" speed="4.80" speedRelative="0.86" departed="0" arrived="0" entered="5" left="5" laneChangedFrom="0" laneChangedTo="0" flow="55.05"/>
        <edge id="-1193997329" sampledSeconds="0.00" departed="0" arrived="0" entered="0" left="0" laneChangedFrom="0" laneChangedTo="0"/>
        <edge id="-1211918059#0" sampledSeconds="0.00" departed="0" arrived="0" entered="0" left="0" laneChangedFrom="0" laneChangedTo="0"/>
        <edge id="-1211918059#1" sampledSeconds="0.00" departed="0" arrived="0" entered="0" left="0" laneChangedFrom="0" laneChangedTo="0"/>
        <edge id="-1211928057#0" sampledSeconds="30.53" traveltime="5.78" overlapTraveltime="6.11" density="3.24" overlapDensity="3.42" laneDensity="3.24" occupancy="0.51" waitingTime="0.00" timeLoss="4.55" speed="4.73" speedRelative="0.85" departed="0" arrived="0" entered="5" left="5" laneChangedFrom="0" laneChangedTo="0" flow="55.05"/>
        <edge id="-1211928057#1" sampledSeconds="0.00" departed="0" arrived="0" entered="0" left="0" laneChangedFrom="0" laneChangedTo="0"/>
        <edge id="-1211928058#0" sampledSeconds="0.00" departed="0" arrived="0" entered="0" left="0" laneChangedFrom="0" laneChangedTo="0"/>
        <edge id="-1211928058#1" sampledSeconds="0.00" departed="0" arrived="0" entered="0" left="0" laneChangedFrom="0" laneChangedTo="0"/>
        <edge id="-1211988156" sampledSeconds="0.00" departed="0" arrived="0" entered="0" left="0" laneChangedFrom="0" laneChangedTo="0"/>
        <edge id="-1284876490#0" sampledSeconds="67.73" traveltime="5.77" overlapTraveltime="6.16" density="2.50" overlapDensity="2.67" laneDensity="2.50" occupancy="1.26" waitingTime="0.00" timeLoss="6.73" speed="13.40" speedRelative="0.96" departed="0" arrived="0" entered="11" left="11" laneChangedFrom="0" laneChangedTo="0" flow="121.10"/>
        <edge id="-1284876490#1" sampledSeconds="40.64" traveltime="3.32" overlapTraveltime="3.69" density="3.23" overlapDensity="3.59" laneDensity="3.23" occupancy="1.54" waitingTime="0.00" timeLoss="11.14" speed="10.73" speedRelative="0.77" departed="0" arrived="0" entered="11" left="11" laneChangedFrom="0" laneChangedTo="0" flow="121.10"/>
        <edge id="-1320722753#0" sampledSeconds="46.79" traveltime="9.05" overlapTraveltime="9.36" density="3.05" overlapDensity="3.15" laneDensity="3.05" occupancy="0.49" waitingTime="0.00" timeLoss="5.70" speed="5.03" speedRelative="0.90" departed="0" arrived="0" entered="5" left="5" laneChangedFrom="0" laneChangedTo="0" flow="55.05"/>
        <edge id="-1320722753#1" sampledSeconds="9.95" traveltime="1.66" overlapTraveltime="1.99" density="3.50" overlapDensity="4.20" laneDensity="3.50" occupancy="0.56" waitingTime="0.00" timeLoss="2.22" speed="4.45" speedRelative="0.80" departed="0" arrived="0" entered="5" left="5" laneChangedFrom="0" laneChangedTo="0" flow="55.05"/>
        <edge id="-1351702507#0" sampledSeconds="0.00" departed="0" arrived="0" entered="0" left="0" laneChangedFrom="0" laneChangedTo="0"/>
        <edge id="-1351702507#1" sampledSeconds="0.00" departed="0" arrived="0" entered="0" left="0" laneChangedFrom="0" laneChangedTo="0"/>
        <edge id="-1351702507#2" sampledSeconds="0.00" departed="0" arrived="0" entered="0" left="0" laneChangedFrom="0" laneChangedTo="0"/>
        <edge id="-1351702507#3" sampledSeconds="0.00" departed="0" arrived="0" entered="0" left="0" laneChangedFrom="0" laneChangedTo="0"/>
        <edge id="-166333704#0" sampledSeconds="32.22" traveltime="3.32" overlapTraveltime="3.79" density="6.29" overlapDensity="7.58" laneDensity="6.29" occupancy="2.39" waitingTime="0.00" timeLoss="19.94" speed="4.36" speedRelative="0.31" departed="5" arrived="0" entered="5" left="10" laneChangedFrom="0" laneChangedTo="0" flow="88.48"/>
        <edge id="-166333704#1" sampledSeconds="52.26" traveltime="10.16" overlapTraveltime="10.45" density="1.43" overlapDensity="1.47" laneDensity="1.43" occupancy="0.31" waitingTime="0.00" timeLoss="10.56" speed="10.63" speedRelative="0.77" departed="0" arrived="0" entered="5" left="5" laneChangedFrom="0" laneChangedTo="0" flow="55.05"/>
        <edge id="-166333704#2" sampledSeconds="5.25" traveltime="0.83" overlapTraveltime="1.05" density="2.21" overlapDensity="2.81" laneDensity="2.21" occupancy="0.43" waitingTime="0.00" timeLoss="2.28" speed="7.53" speedRelative="0.54" departed="0" arrived="0" entered="5" left="5" laneChangedFrom="0" laneChangedTo="0" flow="55.05"/>
        <edge id="-43140826#0" sampledSeconds="217.51" traveltime="19.11" overlapTraveltime="20.62" density="2.90" overlapDensity="3.13" laneDensity="2.90" occupancy="1.37" waitingTime="0.00" timeLoss="33.40" speed="10.52" speedRelative="0.76" departed="0" arrived="0" entered="13" left="10" laneChangedFrom="0" laneChangedTo="0" flow="116.04"/>
        <edge id="-43140826#1" sampledSeconds="199.31" traveltime="12.18" overlapTraveltime="12.48" density="6.43" overlapDensity="6.60" laneDensity="6.43" occupancy="2.19" waitingTime="0.00" timeLoss="42.50" speed="7.67" speedRelative="0.55" departed="5" arrived="0" entered="13" left="14" laneChangedFrom="0" laneChangedTo="0" flow="175.58"/>
        <edge id="-43140826#2" sampledSeconds="589.71" traveltime="23.45" overlapTraveltime="24.84" density="14.05" overlapDensity="14.89" laneDensity="14.05" occupancy="4.00" waitingTime="24.00" timeLoss="249.61" speed="4.99" speedRelative="0.36" departed="0" arrived="0" entered="25" left="22" laneChangedFrom="0" laneChangedTo="0" teleported="1" flow="261.20"/>
        <edge id="-43140831#0" sampledSeconds="17.21" traveltime="11.62" overlapTraveltime="11.91" density="0.84" overlapDensity="0.85" laneDensity="0.84" occupancy="0.13" waitingTime="0.00" timeLoss="0.86" speed="5.31" speedRelative="0.38" departed="0" arrived="0" entered="2" left="1" laneChangedFrom="0" laneChangedTo="0" flow="16.03"/>
        <edge id="-43140831#1" sampledSeconds="179.51" traveltime="22.93" overlapTraveltime="23.27" density="5.07" overlapDensity="5.13" laneDensity="5.07" occupancy="0.81" waitingTime="0.00" timeLoss="17.92" speed="4.67" speedRelative="0.34" departed="0" arrived="5" entered="9" left="2" laneChangedFrom="0" laneChangedTo="0" flow="85.24"/>
        <edge id="-43140831#2" sampledSeconds="145.15" traveltime="6.88" overlapTraveltime="7.63" density="17.12" overlapDensity="19.11" laneDensity="17.12" occupancy="4.27" waitingTime="13.00" timeLoss="63.16" speed="3.36" speedRelative="0.24" departed="5" arrived="0" entered="15" left="20" laneChangedFrom="0" laneChangedTo="0" flow="208.10"/>
        <edge id="-43140831#3" sampledSeconds="174.40" traveltime="11.19" overlapTraveltime="11.55" density="9.95" overlapDensity="10.26" laneDensity="9.95" occupancy="1.63" waitingTime="0.00" timeLoss="25.00" speed="4.64" speedRelative="0.33" departed="1" arrived="0" entered="15" left="15" laneChangedFrom="0" laneChangedTo="0" flow="166.44"/>
        <edge id="-43140831#4" sampledSeconds="232.47" traveltime="15.16" overlapTraveltime="15.50" density="9.77" overlapDensity="9.99" laneDensity="9.77" occupancy="1.56" waitingTime="0.00" timeLoss="30.20" speed="4.70" speedRelative="0.34" departed="0" arrived="0" entered="15" left="15" laneChangedFrom="0" laneChangedTo="0" flow="165.14"/>
        <edge id="-43140831#5" sampledSeconds="282.95" traveltime="18.65" overlapTraveltime="18.99" density="9.97" overlapDensity="10.15" laneDensity="9.97" occupancy="1.60" waitingTime="0.00" timeLoss="43.21" speed="4.58" speedRelative="0.33" departed="5" arrived="0" entered="10" left="15" laneChangedFrom="0" laneChangedTo="0" flow="164.04"/>
        <edge id="-43140831#6" sampledSeconds="48.96" traveltime="4.58" overlapTraveltime="4.90" density="5.92" overlapDensity="6.33" laneDensity="5.92" occupancy="0.95" waitingTime="0.00" timeLoss="3.85" speed="5.16" speedRelative="0.37" departed="0" arrived="0" entered="10" left="10" laneChangedFrom="0" laneChangedTo="0" flow="110.09"/>
        <edge id="-443405652#0" sampledSeconds="271.26" traveltime="14.08" overlapTraveltime="14.43" density="9.95" overlapDensity="10.19" laneDensity="9.95" occupancy="1.70" waitingTime="0.00" timeLoss="35.42" speed="5.76" speedRelative="0.41" departed="0" arrived="0" entered="20" left="18" laneChangedFrom="0" laneChangedTo="0" flow="207.02"/>
        <edge id="-443405652#1" sampledSeconds="41.11" traveltime="7.90" overlapTraveltime="8.22" density="1.40" overlapDensity="1.45" laneDensity="1.40" occupancy="0.30" waitingTime="0.00" timeLoss="8.56" speed="10.78" speedRelative="0.78" departed="0" arrived="0" entered="5" left="5" laneChangedFrom="0" laneChangedTo="0" flow="55.05"/>
        <edge id="-443842819#0" sampledSeconds="0.00" departed="0" arrived="0" entered="0" left="0" laneChangedFrom="0" laneChangedTo="0"/>
        <edge id="-443842819#1" sampledSeconds="0.00" departed="0" arrived="0" entered="0" left="0" laneChangedFrom="0" laneChangedTo="0"/>
        <edge id="-443842820" sampledSeconds="195.86" traveltime="38.86" overlapTraveltime="39.17" density="2.87" overlapDensity="2.90" laneDensity="2.87" occupancy="0.46" waitingTime="0.00" timeLoss="12.74" speed="5.32" speedRelative="0.38" departed="0" arrived="0" entered="5" left="5" laneChangedFrom="0" laneChangedTo="0" flow="55.05"/>
        <edge id="-443842821#0" sampledSeconds="0.00" departed="0" arrived="0" entered="0" left="0" laneChangedFrom="0" laneChangedTo="0"/>
        <edge id="-443842821#1" sampledSeconds="0.00" departed="0" arrived="0" entered="0" left="0" laneChangedFrom="0" laneChangedTo="0"/>
        <edge id="-696616385" sampledSeconds="0.00" departed="0" arrived="0" entered="0" left="0" laneChangedFrom="0" laneChangedTo="0"/>
        <edge id="-696616468" sampledSeconds="0.00" departed="0" arrived="0" entered="0" left="0" laneChangedFrom="0" laneChangedTo="0"/>
        <edge id="-877366030#0" sampledSeconds="51.93" traveltime="6.44" overlapTraveltime="10.39" density="34.93" overlapDensity="56.32" laneDensity="34.93" occupancy="7.40" waitingTime="23.00" timeLoss="47.91" speed="0.43" speedRelative="0.08" departed="0" arrived="0" entered="5" left="5" laneChangedFrom="0" laneChangedTo="0" flow="55.05"/>
        <edge id="-877366030#1" sampledSeconds="203.02" traveltime="40.44" overlapTraveltime="41.23" density="5.49" overlapDensity="5.60" laneDensity="5.49" occupancy="0.89" waitingTime="49.00" timeLoss="101.98" speed="2.73" speedRelative="0.49" departed="5" arrived="0" entered="0" left="5" laneChangedFrom="0" laneChangedTo="0" flow="54.20"/>
        <edge id="-877408687" sampledSeconds="0.00" departed="0" arrived="0" entered="0" left="0" laneChangedFrom="0" laneChangedTo="0"/>
        <edge id="-89608582#1" sampledSeconds="0.00" departed="0" arrived="0" entered="0" left="0" laneChangedFrom="0" laneChangedTo="0"/>
        <edge id="-89608602" sampledSeconds="0.00" departed="0" arrived="0" entered="0" left="0" laneChangedFrom="0" laneChangedTo="0"/>
        <edge id="-89608607" sampledSeconds="0.00" departed="0" arrived="0" entered="0" left="0" laneChangedFrom="0" laneChangedTo="0"/>
        <edge id="-89608638#0" sampledSeconds="0.00" departed="0" arrived="0" entered="0" left="0" laneChangedFrom="0" laneChangedTo="0"/>
        <edge id="-89608638#1" sampledSeconds="0.00" departed="0" arrived="0" entered="0" left="0" laneChangedFrom="0" laneChangedTo="0"/>
        <edge id="-89608638#3" sampledSeconds="0.00" departed="0" arrived="0" entered="0" left="0" laneChangedFrom="0" laneChangedTo="0"/>
        <edge id="-90047484#0" sampledSeconds="0.00" departed="0" arrived="0" entered="0" left="0" laneChangedFrom="0" laneChangedTo="0"/>
        <edge id="-90047484#2" sampledSeconds="0.00" departed="0" arrived="0" entered="0" left="0" laneChangedFrom="0" laneChangedTo="0"/>
        <edge id="-90047510#0" sampledSeconds="280.22" traveltime="55.75" overlapTraveltime="56.04" density="2.98" overlapDensity="3.00" laneDensity="2.98" occupancy="0.48" waitingTime="0.00" timeLoss="29.16" speed="5.13" speedRelative="0.37" departed="0" arrived="0" entered="5" left="5" laneChangedFrom="0" laneChangedTo="0" flow="55.05"/>
        <edge id="-90047510#1" sampledSeconds="9.55" traveltime="1.60" overlapTraveltime="1.91" density="3.61" overlapDensity="4.31" laneDensity="3.61" occupancy="0.55" waitingTime="0.00" timeLoss="2.23" speed="4.39" speedRelative="0.32" departed="0" arrived="0" entered="5" left="5" laneChangedFrom="0" laneChangedTo="0" flow="55.05"/>
        <edge id="-90047539#1" sampledSeconds="0.00" departed="0" arrived="0" entered="0" left="0" laneChangedFrom="0" laneChangedTo="0"/>
        <edge id="-90047550#0" sampledSeconds="0.00" departed="0" arrived="0" entered="0" left="0" laneChangedFrom="0" laneChangedTo="0"/>
        <edge id="-90047550#1" sampledSeconds="0.00" departed="0" arrived="0" entered="0" left="0" laneChangedFrom="0" laneChangedTo="0"/>
        <edge id="-90047588" sampledSeconds="272.12" traveltime="17.94" overlapTraveltime="18.26" density="9.37" overlapDensity="9.53" laneDensity="9.37" occupancy="1.50" waitingTime="0.00" timeLoss="32.37" speed="4.87" speedRelative="0.35" departed="5" arrived="0" entered="10" left="15" laneChangedFrom="0" laneChangedTo="0" flow="164.07"/>
        <edge id="-90047592#0" sampledSeconds="0.00" departed="0" arrived="0" entered="0" left="0" laneChangedFrom="0" laneChangedTo="0"/>
        <edge id="-90047592#1" sampledSeconds="0.00" departed="0" arrived="0" entered="0" left="0" laneChangedFrom="0" laneChangedTo="0"/>
        <edge id="-952052138#0" sampledSeconds="13.04" traveltime="0.07" overlapTraveltime="0.97" density="6.13" overlapDensity="107.76" laneDensity="6.13" occupancy="3.70" waitingTime="0.00" timeLoss="5.12" speed="3.66" speedRelative="0.26" departed="5" arrived="0" entered="10" left="15" laneChangedFrom="0" laneChangedTo="0" flow="110.09"/>
        <edge id="-952053680#0" sampledSeconds="0.00" departed="0" arrived="0" entered="0" left="0" laneChangedFrom="0" laneChangedTo="0"/>
        <edge id="-952053680#1" sampledSeconds="0.00" departed="0" arrived="0" entered="0" left="0" laneChangedFrom="0" laneChangedTo="0"/>
        <edge id="-952053681#0" sampledSeconds="0.63" traveltime="0.30" overlapTraveltime="0.63" density="0.63" overlapDensity="1.32" laneDensity="0.63" occupancy="0.10" waitingTime="0.00" timeLoss="0.03" speed="4.85" speedRelative="0.87" departed="0" arrived="0" entered="1" left="1" laneChangedFrom="0" laneChangedTo="0" flow="11.01"/>
        <edge id="-952053681#1" sampledSeconds="7.45" traveltime="3.36" overlapTraveltime="3.72" density="1.32" overlapDensity="1.46" laneDensity="1.32" occupancy="0.21" waitingTime="0.00" timeLoss="1.20" speed="4.62" speedRelative="0.83" departed="0" arrived="0" entered="2" left="2" laneChangedFrom="0" laneChangedTo="0" flow="22.02"/>
        <edge id="-952053681#2" sampledSeconds="0.00" departed="0" arrived="0" entered="0" left="0" laneChangedFrom="0" laneChangedTo="0"/>
        <edge id="-952053681#3" sampledSeconds="0.00" departed="0" arrived="0" entered="0" left="0" laneChangedFrom="0" laneChangedTo="0"/>
        <edge id="-952670884" sampledSeconds="0.00" departed="0" arrived="0" entered="0" left="0" laneChangedFrom="0" laneChangedTo="0"/>
        <edge id="-952670885#0" sampledSeconds="0.72" traveltime="0.01" overlapTraveltime="0.17" density="1.10" overlapDensity="11.08" laneDensity="1.10" occupancy="0.20" waitingTime="0.00" timeLoss="0.03" speed="14.12" speedRelative="1.02" departed="0" arrived="5" entered="5" left="0" laneChangedFrom="0" laneChangedTo="0" flow="55.05"/>
        <edge id="-952670885#1" sampledSeconds="41.78" traveltime="8.20" overlapTraveltime="8.36" density="1.17" overlapDensity="1.19" laneDensity="1.17" occupancy="0.26" waitingTime="0.00" timeLoss="4.36" speed="13.11" speedRelative="0.94" departed="0" arrived="0" entered="5" left="5" laneChangedFrom="0" laneChangedTo="0" flow="55.05"/>
        <edge id="-952670885#2" sampledSeconds="26.27" traveltime="5.09" overlapTraveltime="5.25" density="1.40" overlapDensity="1.45" laneDensity="1.40" occupancy="0.29" waitingTime="0.00" timeLoss="6.55" speed="10.99" speedRelative="0.79" departed="0" arrived="0" entered="5" left="5" laneChangedFrom="0" laneChangedTo="0" flow="55.05"/>
        <edge id="-954814120#0" sampledSeconds="0.00" departed="0" arrived="0" entered="0" left="0" laneChangedFrom="0" laneChangedTo="0"/>
        <edge id="-954814966#0" sampledSeconds="0.00" departed="0" arrived="0" entered="0" left="0" laneChangedFrom="0" laneChangedTo="0"/>
        <edge id="-954814966#1" sampledSeconds="0.00" departed="0" arrived="0" entered="0" left="0" laneChangedFrom="0" laneChangedTo="0"/>
        <edge id="-954814967" sampledSeconds="0.00" departed="0" arrived="0" entered="0" left="0" laneChangedFrom="0" laneChangedTo="0"/>
        <edge id="-954836212" sampledSeconds="0.00" departed="0" arrived="0" entered="0" left="0" laneChangedFrom="0" laneChangedTo="0"/>
        <edge id="-958114968" sampledSeconds="0.00" departed="0" arrived="0" entered="0" left="0" laneChangedFrom="0" laneChangedTo="0"/>
        <edge id="-967499795" sampledSeconds="0.00" departed="0" arrived="0" entered="0" left="0" laneChangedFrom="0" laneChangedTo="0"/>
        <edge id="1043618989" sampledSeconds="0.00" departed="0" arrived="0" entered="0" left="0" laneChangedFrom="0" laneChangedTo="0"/>
        <edge id="1062498629#0" sampledSeconds="0.00" departed="0" arrived="0" entered="0" left="0" laneChangedFrom="0" laneChangedTo="0"/>
        <edge id="1062498629#1" sampledSeconds="44.99" traveltime="1.48" overlapTraveltime="1.88" density="13.66" overlapDensity="17.60" laneDensity="13.66" occupancy="3.85" waitingTime="0.00" timeLoss="20.12" speed="5.85" speedRelative="0.42" departed="5" arrived="10" entered="20" left="15" laneChangedFrom="0" laneChangedTo="0" flow="259.04"/>
        <edge id="1062498629#10" sampledSeconds="14.55" traveltime="2.44" overlapTraveltime="2.91" density="1.98" overlapDensity="2.36" laneDensity="1.98" occupancy="0.46" waitingTime="0.00" timeLoss="5.02" speed="7.24" speedRelative="0.52" departed="0" arrived="0" entered="5" left="5" laneChangedFrom="0" laneChangedTo="0" flow="55.05"/>
        <edge id="1062498629#2" sampledSeconds="369.04" traveltime="26.55" overlapTraveltime="27.08" density="4.76" overlapDensity="4.86" laneDensity="4.76" occupancy="1.65" waitingTime="1.00" timeLoss="38.54" speed="8.71" speedRelative="0.63" departed="0" arrived="0" entered="15" left="12" laneChangedFrom="0" laneChangedTo="0" flow="149.81"/>
        <edge id="1062498629#3" sampledSeconds="16.07" traveltime="0.58" overlapTraveltime="1.74" density="6.49" overlapDensity="16.38" laneDensity="6.49" occupancy="3.00" waitingTime="0.00" timeLoss="5.07" speed="4.46" speedRelative="0.32" departed="0" arrived="5" entered="11" left="6" laneChangedFrom="0" laneChangedTo="0" flow="121.10"/>
        <edge id="1062498629#5" sampledSeconds="81.29" traveltime="16.27" overlapTraveltime="16.46" density="1.34" overlapDensity="1.36" laneDensity="1.34" occupancy="0.30" waitingTime="0.00" timeLoss="16.44" speed="11.27" speedRelative="0.81" departed="5" arrived="0" entered="0" left="5" laneChangedFrom="0" laneChangedTo="0" flow="54.36"/>
        <edge id="1062498629#6" sampledSeconds="18.80" traveltime="3.58" overlapTraveltime="3.76" density="1.27" overlapDensity="1.33" laneDensity="1.27" occupancy="0.28" waitingTime="0.00" timeLoss="2.72" speed="12.09" speedRelative="0.87" departed="0" arrived="0" entered="5" left="5" laneChangedFrom="0" laneChangedTo="0" flow="55.05"/>
        <edge id="1062498629#7" sampledSeconds="11.51" traveltime="2.08" overlapTraveltime="2.30" density="1.36" overlapDensity="1.50" laneDensity="1.36" occupancy="0.30" waitingTime="0.00" timeLoss="1.91" speed="11.13" speedRelative="0.80" departed="0" arrived="0" entered="5" left="5" laneChangedFrom="0" laneChangedTo="0" flow="55.05"/>
        <edge id="1062498629#8" sampledSeconds="36.71" traveltime="7.17" overlapTraveltime="7.34" density="1.27" overlapDensity="1.30" laneDensity="1.27" occupancy="0.28" waitingTime="0.00" timeLoss="5.31" speed="12.09" speedRelative="0.87" departed="0" arrived="0" entered="5" left="5" laneChangedFrom="0" laneChangedTo="0" flow="55.05"/>
        <edge id="1062498629#9" sampledSeconds="28.19" traveltime="5.44" overlapTraveltime="5.64" density="1.26" overlapDensity="1.30" laneDensity="1.26" occupancy="0.28" waitingTime="0.00" timeLoss="3.97" speed="12.14" speedRelative="0.87" departed="0" arrived="0" entered="5" left="5" laneChangedFrom="0" laneChangedTo="0" flow="55.05"/>
        <edge id="1125912897" sampledSeconds="49.69" traveltime="49.54" overlapTraveltime="49.69" density="0.32" overlapDensity="0.32" laneDensity="0.32" occupancy="0.16" waitingTime="21.00" timeLoss="25.70" speed="9.57" speedRelative="0.69" departed="1" arrived="0" entered="0" left="1" laneChangedFrom="0" laneChangedTo="0" flow="11.01"/>
        <edge id="1150062811#0" sampledSeconds="1304.29" traveltime="89.31" overlapTraveltime="92.17" density="38.22" overlapDensity="39.12" laneDensity="38.22" occupancy="15.44" waitingTime="398.00" timeLoss="775.40" speed="1.15" speedRelative="0.41" departed="5" arrived="0" entered="10" left="9" laneChangedFrom="0" laneChangedTo="0" flow="157.08"/>