<?xml version="1.0" encoding="UTF-8"?>

<!-- generated on 2026-01-31T21:03:24.946149+07:00 by Eclipse SUMO sumo v1_25_0+0904-59bbc76848e
<sumoConfiguration xmlns:xsi="http://www.w3.org/2001/XMLSchema-instance" xsi:noNamespaceSchemaLocation="http://sumo.dlr.de/xsd/sumoConfiguration.xsd">

    <input>
        <net-file value="maps/NinhKieuBridge/osm.net.xml.gz"/>
        <route-files value="maps/NinhKieuBridge/osm_pt.rou.xml,maps/NinhKieuBridge/osm.bicycle.trips.xml,maps/NinhKieuBridge/osm.motorcycle.trips.xml,maps/NinhKieuBridge/osm.passenger.trips.xml,maps/NinhKieuBridge/osm.pedestrian.rou.xml"/>
        <additional-files value="maps/NinhKieuBridge/osm.poly.xml.gz,maps/NinhKieuBridge/osm_stops.add.xml,maps/NinhKieuBridge/output.add.xml"/>
    </input>

    <output>
        <tripinfo-output value="maps/NinhKieuBridge/tripinfos.xml"/>
        <stop-output value="maps/NinhKieuBridge/stopinfos.xml"/>
        <statistic-output value="maps/NinhKieuBridge/stats.xml"/>
    </output>

    <processing>
        <ignore-route-errors value="true"/>
        <scale value="5.0"/>
        <tls.actuated.jam-threshold value="30"/>
    </processing>

    <routing>
        <device.rerouting.adaptation-steps value="18"/>
        <device.rerouting.adaptation-interval value="10"/>
    </routing>

    <report>
        <verbose value="true"/>
        <no-warnings value="true"/>
        <no-step-log value="true"/>
    </report>

    <emissions>
        <device.emissions.probability value="1.0"/>
    </emissions>

    <traci_server>
        <remote-port value="38245"/>
    </traci_server>

    <gui_only>
        <gui-settings-file value="maps/NinhKieuBridge/osm.view.xml"/>
        <quit-on-end value="true"/>
        <start value="true"/>
        <delay value="20"/>
    </gui_only>

</sumoConfiguration>
-->

<meandata xmlns:xsi="http://www.w3.org/2001/XMLSchema-instance" xsi:noNamespaceSchemaLocation="http://sumo.dlr.de/xsd/meandata_file.xsd">
    <interval begin="0.00" end="220.00" id="wizard_example">
        <edge id="-1043618989" sampledSeconds="0.00" departed="0" arrived="0" entered="0" left="0" laneChangedFrom="0" laneChangedTo="0"/>
        <edge id="-1062498629#0" sampledSeconds="133.08" traveltime="26.30" overlapTraveltime="26.70" density="1.84" overlapDensity="1.86" laneDensity="1.84" occupancy="0.92" waitingTime="0.00" timeLoss="6.75" speed="12.36" speedRelative="0.89" departed="0" arrived="5" entered="5" left="0" laneChangedFrom="0" laneChangedTo="0" flow="81.82"/>
        <edge id="-1062498629#1" sampledSeconds="29.80" traveltime="1.43" overlapTraveltime="1.90" density="12.48" overlapDensity="17.32" laneDensity="12.48" occupancy="3.08" waitingTime="0.00" timeLoss="9.00" speed="5.41" speedRelative="0.39" departed="0" arrived="0" entered="15" left="15" laneChangedFrom="0" laneChangedTo="0" flow="245.45"/>
        <edge id="-1062498629#10" sampledSeconds="0.00" departed="0" arrived="0" entered="0" left="0" laneChangedFrom="0" laneChangedTo="0"/>
        <edge id="-1062498629#2" sampledSeconds="859.36" traveltime="42.60" overlapTraveltime="42.90" density="16.65" overlapDensity="16.79" laneDensity="16.65" occupancy="3.60" waitingTime="1.00" timeLoss="266.70" speed="5.47" speedRelative="0.39" departed="0" arrived="5" entered="20" left="15" laneChangedFrom="0" laneChangedTo="0" flow="327.27"/>
        <edge id="-1062498629#3" sampledSeconds="26.78" traveltime="0.93" overlapTraveltime="1.37" density="24.07" overlapDensity="40.57" laneDensity="24.07" occupancy="5.45" waitingTime="0.00" timeLoss="15.14" speed="3.87" speedRelative="0.28" departed="5" arrived="0" entered="15" left="20" laneChangedFrom="0" laneChangedTo="0" flow="280.91"/>
        <edge id="-1062498629#5" sampledSeconds="92.42" traveltime="14.54" overlapTraveltime="15.40" density="2.14" overlapDensity="2.27" laneDensity="2.14" occupancy="1.10" waitingTime="0.00" timeLoss="11.69" speed="12.34" speedRelative="0.89" departed="0" arrived="0" entered="6" left="6" laneChangedFrom="0" laneChangedTo="0" flow="98.18"/>
        <edge id="-1062498629#6" sampledSeconds="37.31" traveltime="6.45" overlapTraveltime="6.82" density="3.67" overlapDensity="3.92" laneDensity="3.67" occupancy="1.89" waitingTime="1.00" timeLoss="18.41" speed="7.08" speedRelative="0.51" departed="5" arrived="0" entered="1" left="6" laneChangedFrom="0" laneChangedTo="0" flow="88.54"/>
        <edge id="-1062498629#7" sampledSeconds="3.09" traveltime="2.59" overlapTraveltime="3.09" density="0.47" overlapDensity="0.56" laneDensity="0.47" occupancy="0.24" waitingTime="0.00" timeLoss="0.69" speed="9.74" speedRelative="0.70" departed="0" arrived="0" entered="1" left="1" laneChangedFrom="0" laneChangedTo="0" flow="16.36"/>
        <edge id="-1062498629#8" sampledSeconds="20.93" traveltime="20.34" overlapTraveltime="20.93" density="1.03" overlapDensity="1.06" laneDensity="1.03" occupancy="0.46" waitingTime="0.00" timeLoss="13.23" speed="4.55" speedRelative="0.33" departed="1" arrived="0" entered="0" left="1" laneChangedFrom="0" laneChangedTo="0" flow="16.36"/>
        <edge id="-1062498629#9" sampledSeconds="0.00" departed="0" arrived="0" entered="0" left="0" laneChangedFrom="0" laneChangedTo="0"/>
        <edge id="-1150062811#0" sampledSeconds="588.53" traveltime="52.33" overlapTraveltime="53.63" density="25.75" overlapDensity="26.24" laneDensity="25.75" occupancy="9.74" waitingTime="8.00" timeLoss="178.48" speed="1.97" speedRelative="0.71" departed="0" arrived="0" entered="14" left="10" laneChangedFrom="0" laneChangedTo="0" flow="180.58"/>
        <edge id="-1150062811#1" sampledSeconds="330.28" traveltime="74.51" overlapTraveltime="78.00" density="12.52" overlapDensity="12.94" laneDensity="12.52" occupancy="6.20" waitingTime="0.00" timeLoss="134.83" speed="1.55" speedRelative="0.56" departed="0" arrived="0" entered="5" left="3" laneChangedFrom="0" laneChangedTo="0" flow="70.16"/>
        <edge id="-1150062811#2" sampledSeconds="0.00" departed="0" arrived="0" entered="0" left="0" laneChangedFrom="0" laneChangedTo="0"/>
        <edge id="-1150062812#0" sampledSeconds="543.61" traveltime="107.31" overlapTraveltime="111.57" density="12.19" overlapDensity="12.68" laneDensity="12.19" occupancy="6.20" waitingTime="11.00" timeLoss="176.09" speed="1.79" speedRelative="0.64" departed="5" arrived="0" entered="0" left="5" laneChangedFrom="0" laneChangedTo="0" flow="79.68"/>
        <edge id="-1150062812#1" sampledSeconds="221.63" traveltime="44.42" overlapTraveltime="45.42" density="10.59" overlapDensity="10.84" laneDensity="10.59" occupancy="2.36" waitingTime="1.00" timeLoss="63.15" speed="2.09" speedRelative="0.75" departed="5" arrived="0" entered="0" left="5" laneChangedFrom="0" laneChangedTo="0" flow="79.79"/>
        <edge id="-1150062813" sampledSeconds="434.97" traveltime="40.68" overlapTraveltime="42.64" density="24.01" overlapDensity="25.10" laneDensity="24.01" occupancy="9.13" waitingTime="0.00" timeLoss="132.17" speed="1.93" speedRelative="0.70" departed="8" arrived="0" entered="5" left="10" laneChangedFrom="0" laneChangedTo="0" flow="167.37"/>
        <edge id="-1193997327#0" sampledSeconds="28.85" traveltime="5.43" overlapTraveltime="5.77" density="4.78" overlapDensity="5.09" laneDensity="4.78" occupancy="0.77" waitingTime="0.00" timeLoss="4.44" speed="4.74" speedRelative="0.85" departed="0" arrived="0" entered="5" left="5" laneChangedFrom="0" laneChangedTo="0" flow="81.82"/>
        <edge id="-1193997327#2" sampledSeconds="42.51" traveltime="8.19" overlapTraveltime="8.50" density="4.47" overlapDensity="4.64" laneDensity="4.47" occupancy="0.72" waitingTime="0.00" timeLoss="4.44" speed="5.08" speedRelative="0.91" departed="0" arrived="0" entered="5" left="5" laneChangedFrom="0" laneChangedTo="0" flow="81.82"/>
        <edge id="-1193997327#3" sampledSeconds="0.00" departed="0" arrived="0" entered="0" left="0" laneChangedFrom="0" laneChangedTo="0"/>
        <edge id="-1193997327#4" sampledSeconds="0.00" departed="0" arrived="0" entered="0" left="0" laneChangedFrom="0" laneChangedTo="0"/>
        <edge id="-1193997328#0" sampledSeconds="0.00" departed="0" arrived="0" entered="0" left="0" laneChangedFrom="0" laneChangedTo="0"/>
        <edge id="-1193997328#1" sampledSeconds="0.00" departed="0" arrived="0" entered="0" left="0" laneChangedFrom="0" laneChangedTo="0"/>
        <edge id="-1193997328#2" sampledSeconds="0.00" departed="0" arrived="0" entered="0" left="0" laneChangedFrom="0" laneChangedTo="0"/>
        <edge id="-1193997329" sampledSeconds="0.00" departed="0" arrived="0" entered="0" left="0" laneChangedFrom="0" laneChangedTo="0"/>
        <edge id="-1211918059#0" sampledSeconds="0.00" departed="0" arrived="0" entered="0" left="0" laneChangedFrom="0" laneChangedTo="0"/>
        <edge id="-1211918059#1" sampledSeconds="0.00" departed="0" arrived="0" entered="0" left="0" laneChangedFrom="0" laneChangedTo="0"/>
        <edge id="-1211928057#0" sampledSeconds="30.53" traveltime="5.78" overlapTraveltime="6.11" density="4.82" overlapDensity="5.09" laneDensity="4.82" occupancy="0.76" waitingTime="0.00" timeLoss="4.55" speed="4.73" speedRelative="0.85" departed="0" arrived="0" entered="5" left="5" laneChangedFrom="0" laneChangedTo="0" flow="81.82"/>
        <edge id="-1211928057#1" sampledSeconds="0.00" departed="0" arrived="0" entered="0" left="0" laneChangedFrom="0" laneChangedTo="0"/>
        <edge id="-1211928058#0" sampledSeconds="0.00" departed="0" arrived="0" entered="0" left="0" laneChangedFrom="0" laneChangedTo="0"/>
        <edge id="-1211928058#1" sampledSeconds="0.00" departed="0" arrived="0" entered="0" left="0" laneChangedFrom="0" laneChangedTo="0"/>
        <edge id="-1211988156" sampledSeconds="0.00" departed="0" arrived="0" entered="0" left="0" laneChangedFrom="0" laneChangedTo="0"/>
        <edge id="-1284876490#0" sampledSeconds="35.41" traveltime="5.53" overlapTraveltime="5.90" density="1.95" overlapDensity="2.08" laneDensity="1.95" occupancy="0.98" waitingTime="0.00" timeLoss="3.40" speed="13.98" speedRelative="1.01" departed="0" arrived="0" entered="6" left="6" laneChangedFrom="0" laneChangedTo="0" flow="98.18"/>
        <edge id="-1284876490#1" sampledSeconds="21.01" traveltime="3.15" overlapTraveltime="3.50" density="2.48" overlapDensity="2.76" laneDensity="2.48" occupancy="1.18" waitingTime="0.00" timeLoss="5.55" speed="11.33" speedRelative="0.82" departed="0" arrived="0" entered="6" left="6" laneChangedFrom="0" laneChangedTo="0" flow="98.18"/>
        <edge id="-1320722753#0" sampledSeconds="47.17" traveltime="9.12" overlapTraveltime="9.43" density="4.56" overlapDensity="4.72" laneDensity="4.56" occupancy="0.73" waitingTime="0.00" timeLoss="6.08" speed="4.99" speedRelative="0.90" departed="0" arrived="0" entered="5" left="5" laneChangedFrom="0" laneChangedTo="0" flow="81.82"/>
        <edge id="-1320722753#1" sampledSeconds="9.59" traveltime="1.59" overlapTraveltime="1.92" density="4.99" overlapDensity="6.01" laneDensity="4.99" occupancy="0.80" waitingTime="0.00" timeLoss="1.86" speed="4.62" speedRelative="0.83" departed="0" arrived="0" entered="5" left="5" laneChangedFrom="0" laneChangedTo="0" flow="81.82"/>
        <edge id="-1351702507#0" sampledSeconds="0.00" departed="0" arrived="0" entered="0" left="0" laneChangedFrom="0" laneChangedTo="0"/>
        <edge id="-1351702507#1" sampledSeconds="0.00" departed="0" arrived="0" entered="0" left="0" laneChangedFrom="0" laneChangedTo="0"/>
        <edge id="-1351702507#2" sampledSeconds="0.00" departed="0" arrived="0" entered="0" left="0" laneChangedFrom="0" laneChangedTo="0"/>
        <edge id="-1351702507#3" sampledSeconds="0.00" departed="0" arrived="0" entered="0" left="0" laneChangedFrom="0" laneChangedTo="0"/>
        <edge id="-166333704#0" sampledSeconds="32.22" traveltime="3.32" overlapTraveltime="3.79" density="9.35" overlapDensity="11.27" laneDensity="9.35" occupancy="3.55" waitingTime="0.00" timeLoss="19.94" speed="4.36" speedRelative="0.31" departed="5" arrived="0" entered="5" left="10" laneChangedFrom="0" laneChangedTo="0" flow="131.51"/>
        <edge id="-166333704#1" sampledSeconds="52.26" traveltime="10.16" overlapTraveltime="10.45" density="2.12" overlapDensity="2.18" laneDensity="2.12" occupancy="0.47" waitingTime="0.00" timeLoss="10.56" speed="10.63" speedRelative="0.77" departed="0" arrived="0" entered="5" left="5" laneChangedFrom="0" laneChangedTo="0" flow="81.82"/>
        <edge id="-166333704#2" sampledSeconds="5.25" traveltime="0.83" overlapTraveltime="1.05" density="3.29" overlapDensity="4.18" laneDensity="3.29" occupancy="0.64" waitingTime="0.00" timeLoss="2.28" speed="7.53" speedRelative="0.54" departed="0" arrived="0" entered="5" left="5" laneChangedFrom="0" laneChangedTo="0" flow="81.82"/>
        <edge id="-43140826#0" sampledSeconds="96.57" traveltime="17.71" overlapTraveltime="19.31" density="1.90" overlapDensity="2.07" laneDensity="1.90" occupancy="0.98" waitingTime="0.00" timeLoss="16.70" speed="11.25" speedRelative="0.81" departed="0" arrived="0" entered="5" left="5" laneChangedFrom="0" laneChangedTo="0" flow="81.82"/>
        <edge id="-43140826#1" sampledSeconds="49.32" traveltime="10.05" overlapTraveltime="10.41" density="2.34" overlapDensity="2.43" laneDensity="2.34" occupancy="1.19" waitingTime="0.00" timeLoss="17.02" speed="9.35" speedRelative="0.67" departed="5" arrived="0" entered="0" left="5" laneChangedFrom="0" laneChangedTo="0" flow="77.30"/>
        <edge id="-43140826#2" sampledSeconds="67.26" traveltime="9.98" overlapTraveltime="11.06" density="2.28" overlapDensity="2.52" laneDensity="2.28" occupancy="1.15" waitingTime="0.00" timeLoss="15.07" speed="11.40" speedRelative="0.82" departed="0" arrived="0" entered="7" left="6" laneChangedFrom="0" laneChangedTo="0" flow="99.50"/>
        <edge id="-43140831#0" sampledSeconds="0.00" departed="0" arrived="0" entered="0" left="0" laneChangedFrom="0" laneChangedTo="0"/>
        <edge id="-43140831#1" sampledSeconds="122.51" traveltime="24.24" overlapTraveltime="24.58" density="5.15" overlapDensity="5.20" laneDensity="5.15" occupancy="0.82" waitingTime="0.00" timeLoss="14.87" speed="4.42" speedRelative="0.32" departed="0" arrived="5" entered="5" left="0" laneChangedFrom="0" laneChangedTo="0" flow="81.82"/>
        <edge id="-43140831#2" sampledSeconds="42.20" traveltime="5.54" overlapTraveltime="6.00" density="7.70" overlapDensity="8.26" laneDensity="7.70" occupancy="1.23" waitingTime="0.00" timeLoss="8.29" speed="4.14" speedRelative="0.30" departed="0" arrived="0" entered="9" left="6" laneChangedFrom="0" laneChangedTo="0" flow="116.29"/>
        <edge id="-43140831#3" sampledSeconds="116.19" traveltime="11.31" overlapTraveltime="11.67" density="9.87" overlapDensity="10.16" laneDensity="9.87" occupancy="1.58" waitingTime="0.00" timeLoss="15.12" speed="4.59" speedRelative="0.33" departed="0" arrived="0" entered="10" left="9" laneChangedFrom="0" laneChangedTo="0" flow="163.42"/>
        <edge id="-43140831#4" sampledSeconds="204.51" traveltime="15.50" overlapTraveltime="15.85" density="12.81" overlapDensity="13.06" laneDensity="12.81" occupancy="2.05" waitingTime="0.00" timeLoss="28.50" speed="4.59" speedRelative="0.33" departed="0" arrived="0" entered="14" left="11" laneChangedFrom="0" laneChangedTo="0" flow="211.86"/>
        <edge id="-43140831#5" sampledSeconds="281.75" traveltime="18.67" overlapTraveltime="19.02" density="14.76" overlapDensity="15.02" laneDensity="14.76" occupancy="2.37" waitingTime="0.00" timeLoss="43.39" speed="4.57" speedRelative="0.33" departed="5" arrived="0" entered="10" left="14" laneChangedFrom="0" laneChangedTo="0" flow="242.66"/>
        <edge id="-43140831#6" sampledSeconds="48.96" traveltime="4.58" overlapTraveltime="4.90" density="8.80" overlapDensity="9.40" laneDensity="8.80" occupancy="1.41" waitingTime="0.00" timeLoss="3.84" speed="5.16" speedRelative="0.37" departed="0" arrived="0" entered="10" left="10" laneChangedFrom="0" laneChangedTo="0" flow="163.64"/>
        <edge id="-443405652#0" sampledSeconds="84.61" traveltime="16.59" overlapTraveltime="16.92" density="4.63" overlapDensity="4.73" laneDensity="4.63" occupancy="0.74" waitingTime="0.00" timeLoss="4.71" speed="4.90" speedRelative="0.35" departed="0" arrived="0" entered="5" left="5" laneChangedFrom="0" laneChangedTo="0" flow="81.82"/>
        <edge id="-443405652#1" sampledSeconds="0.00" departed="0" arrived="0" entered="0" left="0" laneChangedFrom="0" laneChangedTo="0"/>
        <edge id="-443842819#0" sampledSeconds="0.00" departed="0" arrived="0" entered="0" left="0" laneChangedFrom="0" laneChangedTo="0"/>
        <edge id="-443842819#1" sampledSeconds="0.00" departed="0" arrived="0" entered="0" left="0" laneChangedFrom="0" laneChangedTo="0"/>
        <edge id="-443842820" sampledSeconds="25.22" traveltime="39.30" overlapTraveltime="39.60" density="0.55" overlapDensity="0.55" laneDensity="0.55" occupancy="0.09" waitingTime="0.00" timeLoss="3.16" speed="5.26" speedRelative="0.38" departed="0" arrived="0" entered="4" left="0" laneChangedFrom="0" laneChangedTo="0" flow="10.50"/>
        <edge id="-443842821#0" sampledSeconds="0.00" departed="0" arrived="0" entered="0" left="0" laneChangedFrom="0" laneChangedTo="0"/>
        <edge id="-443842821#1" sampledSeconds="0.00" departed="0" arrived="0" entered="0" left="0" laneChangedFrom="0" laneChangedTo="0"/>
        <edge id="-696616385" sampledSeconds="0.00" departed="0" arrived="0" entered="0" left="0" laneChangedFrom="0" laneChangedTo="0"/>
        <edge id="-696616468" sampledSeconds="0.00" departed="0" arrived="0" entered="0" left="0" laneChangedFrom="0" laneChangedTo="0"/>
        <edge id="-877366030#0" sampledSeconds="0.00" departed="0" arrived="0" entered="0" left="0" laneChangedFrom="0" laneChangedTo="0"/>
        <edge id="-877366030#1" sampledSeconds="0.00" departed="0" arrived="0" entered="0" left="0" laneChangedFrom="0" laneChangedTo="0"/>
        <edge id="-877408687" sampledSeconds="0.00" departed="0" arrived="0" entered="0" left="0" laneChangedFrom="0" laneChangedTo="0"/>
        <edge id="-89608582#1" sampledSeconds="0.00" departed="0" arrived="0" entered="0" left="0" laneChangedFrom="0" laneChangedTo="0"/>
        <edge id="-89608602" sampledSeconds="0.00" departed="0" arrived="0" entered="0" left="0" laneChangedFrom="0" laneChangedTo="0"/>
        <edge id="-89608607" sampledSeconds="0.00" departed="0" arrived="0" entered="0" left="0" laneChangedFrom="0" laneChangedTo="0"/>
        <edge id="-89608638#0" sampledSeconds="0.00" departed="0" arrived="0" entered="0" left="0" laneChangedFrom="0" laneChangedTo="0"/>
        <edge id="-89608638#1" sampledSeconds="0.00" departed="0" arrived="0" entered="0" left="0" laneChangedFrom="0" laneChangedTo="0"/>
        <edge id="-89608638#3" sampledSeconds="0.00" departed="0" arrived="0" entered="0" left="0" laneChangedFrom="0" laneChangedTo="0"/>
        <edge id="-90047484#0" sampledSeconds="0.00" departed="0" arrived="0" entered="0" left="0" laneChangedFrom="0" laneChangedTo="0"/>
        <edge id="-90047484#2" sampledSeconds="0.00" departed="0" arrived="0" entered="0" left="0" laneChangedFrom="0" laneChangedTo="0"/>
        <edge id="-90047510#0" sampledSeconds="280.36" traveltime="55.77" overlapTraveltime="56.07" density="4.43" overlapDensity="4.46" laneDensity="4.43" occupancy="0.71" waitingTime="0.00" timeLoss="29.30" speed="5.13" speedRelative="0.37" departed="0" arrived="0" entered="5" left="5" laneChangedFrom="0" laneChangedTo="0" flow="81.82"/>
        <edge id="-90047510#1" sampledSeconds="9.55" traveltime="1.60" overlapTraveltime="1.91" density="5.36" overlapDensity="6.40" laneDensity="5.36" occupancy="0.82" waitingTime="0.00" timeLoss="2.23" speed="4.39" speedRelative="0.32" departed="0" arrived="0" entered="5" left="5" laneChangedFrom="0" laneChangedTo="0" flow="81.82"/>
        <edge id="-90047539#1" sampledSeconds="0.00" departed="0" arrived="0" entered="0" left="0" laneChangedFrom="0" laneChangedTo="0"/>
        <edge id="-90047550#0" sampledSeconds="0.00" departed="0" arrived="0" entered="0" left="0" laneChangedFrom="0" laneChangedTo="0"/>
        <edge id="-90047550#1" sampledSeconds="0.00" departed="0" arrived="0" entered="0" left="0" laneChangedFrom="0" laneChangedTo="0"/>
        <edge id="-90047588" sampledSeconds="187.71" traveltime="18.76" overlapTraveltime="19.09" density="9.62" overlapDensity="9.77" laneDensity="9.62" occupancy="1.55" waitingTime="0.00" timeLoss="27.16" speed="4.66" speedRelative="0.34" departed="5" arrived="0" entered="5" left="9" laneChangedFrom="0" laneChangedTo="0" flow="161.17"/>
        <edge id="-90047592#0" sampledSeconds="0.00" departed="0" arrived="0" entered="0" left="0" laneChangedFrom="0" laneChangedTo="0"/>
        <edge id="-90047592#1" sampledSeconds="0.00" departed="0" arrived="0" entered="0" left="0" laneChangedFrom="0" laneChangedTo="0"/>
        <edge id="-952052138#0" sampledSeconds="5.93" overlapTraveltime="1.39" density="0.00" overlapDensity="72.88" laneDensity="0.00" occupancy="2.61" waitingTime="0.00" timeLoss="4.14" speed="1.85" speedRelative="0.13" departed="5" arrived="0" entered="0" left="5" laneChangedFrom="0" laneChangedTo="0" flow="0.00"/>
        <edge id="-952053680#0" sampledSeconds="0.00" departed="0" arrived="0" entered="0" left="0" laneChangedFrom="0" laneChangedTo="0"/>
        <edge id="-952053680#1" sampledSeconds="0.00" departed="0" arrived="0" entered="0" left="0" laneChangedFrom="0" laneChangedTo="0"/>
        <edge id="-952053681#0" sampledSeconds="0.00" departed="0" arrived="0" entered="0" left="0" laneChangedFrom="0" laneChangedTo="0"/>
        <edge id="-952053681#1" sampledSeconds="0.00" departed="0" arrived="0" entered="0" left="0" laneChangedFrom="0" laneChangedTo="0"/>
        <edge id="-952053681#2" sampledSeconds="0.00" departed="0" arrived="0" entered="0" left="0" laneChangedFrom="0" laneChangedTo="0"/>
        <edge id="-952053681#3" sampledSeconds="0.00" departed="0" arrived="0" entered="0" left="0" laneChangedFrom="0" laneChangedTo="0"/>
        <edge id="-952670884" sampledSeconds="0.00" departed="0" arrived="0" entered="0" left="0" laneChangedFrom="0" laneChangedTo="0"/>
        <edge id="-952670885#0" sampledSeconds="0.16" traveltime="0.01" overlapTraveltime="0.16" density="0.31" overlapDensity="3.69" laneDensity="0.31" occupancy="0.07" waitingTime="0.00" timeLoss="0.00" speed="14.78" speedRelative="1.06" departed="0" arrived="1" entered="1" left="0" laneChangedFrom="0" laneChangedTo="0" flow="16.36"/>
        <edge id="-952670885#1" sampledSeconds="19.42" traveltime="8.01" overlapTraveltime="8.16" density="0.82" overlapDensity="0.82" laneDensity="0.82" occupancy="0.18" waitingTime="0.00" timeLoss="1.72" speed="13.42" speedRelative="0.97" departed="0" arrived="0" entered="4" left="1" laneChangedFrom="0" laneChangedTo="0" flow="39.39"/>
        <edge id="-952670885#2" sampledSeconds="19.99" traveltime="4.83" overlapTraveltime="5.00" density="1.58" overlapDensity="1.64" laneDensity="1.58" occupancy="0.34" waitingTime="0.00" timeLoss="4.46" speed="11.55" speedRelative="0.83" departed="0" arrived="0" entered="4" left="4" laneChangedFrom="0" laneChangedTo="0" flow="65.45"/>
        <edge id="-954814120#0" sampledSeconds="0.00" departed="0" arrived="0" entered="0" left="0" laneChangedFrom="0" laneChangedTo="0"/>
        <edge id="-954814966#0" sampledSeconds="0.00" departed="0" arrived="0" entered="0" left="0" laneChangedFrom="0" laneChangedTo="0"/>
        <edge id="-954814966#1" sampledSeconds="0.00" departed="0" arrived="0" entered="0" left="0" laneChangedFrom="0" laneChangedTo="0"/>
        <edge id="-954814967" sampledSeconds="0.00" departed="0" arrived="0" entered="0" left="0" laneChangedFrom="0" laneChangedTo="0"/>
        <edge id="-954836212" sampledSeconds="0.00" departed="0" arrived="0" entered="0" left="0" laneChangedFrom="0" laneChangedTo="0"/>
        <edge id="-958114968" sampledSeconds="0.00" departed="0" arrived="0" entered="0" left="0" laneChangedFrom="0" laneChangedTo="0"/>
        <edge id="-967499795" sampledSeconds="0.00" departed="0" arrived="0" entered="0" left="0" laneChangedFrom="0" laneChangedTo="0"/>
        <edge id="1043618989" sampledSeconds="0.00" departed="0" arrived="0" entered="0" left="0" laneChangedFrom="0" laneChangedTo="0"/>
        <edge id="1062498629#0" sampledSeconds="0.00" departed="0" arrived="0" entered="0" left="0" laneChangedFrom="0" laneChangedTo="0"/>
        <edge id="1062498629#1" sampledSeconds="19.01" traveltime="1.39" overlapTraveltime="1.75" density="8.67" overlapDensity="11.05" laneDensity="8.67" occupancy="2.49" waitingTime="0.00" timeLoss="10.31" speed="6.38" speedRelative="0.46" departed="2" arrived="6" entered="10" left="5" laneChangedFrom="0" laneChangedTo="0" flow="175.70"/>
        <edge id="1062498629#10" sampledSeconds="14.55" traveltime="2.44" overlapTraveltime="2.91" density="2.94" overlapDensity="3.51" laneDensity="2.94" occupancy="0.68" waitingTime="0.00" timeLoss="5.02" speed="7.24" speedRelative="0.52" departed="0" arrived="0" entered="5" left="5" laneChangedFrom="0" laneChangedTo="0" flow="81.82"/>
        <edge id="1062498629#2" sampledSeconds="40.29" traveltime="17.73" overlapTraveltime="18.11" density="0.79" overlapDensity="0.79" laneDensity="0.79" occupancy="0.38" waitingTime="0.00" timeLoss="3.62" speed="13.11" speedRelative="0.94" departed="0" arrived="0" entered="5" left="0" laneChangedFrom="0" laneChangedTo="0" flow="37.19"/>
        <edge id="1062498629#3" sampledSeconds="0.00" departed="0" arrived="0" entered="0" left="0" laneChangedFrom="0" laneChangedTo="0"/>
        <edge id="1062498629#5" sampledSeconds="81.29" traveltime="16.27" overlapTraveltime="16.46" density="1.99" overlapDensity="2.02" laneDensity="1.99" occupancy="0.44" waitingTime="0.00" timeLoss="16.44" speed="11.27" speedRelative="0.81" departed="5" arrived="0" entered="0" left="5" laneChangedFrom="0" laneChangedTo="0" flow="80.79"/>
        <edge id="1062498629#6" sampledSeconds="18.80" traveltime="3.58" overlapTraveltime="3.76" density="1.88" overlapDensity="1.98" laneDensity="1.88" occupancy="0.41" waitingTime="0.00" timeLoss="2.72" speed="12.09" speedRelative="0.87" departed="0" arrived="0" entered="5" left="5" laneChangedFrom="0" laneChangedTo="0" flow="81.82"/>
        <edge id="1062498629#7" sampledSeconds="11.51" traveltime="2.08" overlapTraveltime="2.30" density="2.01" overlapDensity="2.23" laneDensity="2.01" occupancy="0.45" waitingTime="0.00" timeLoss="1.91" speed="11.13" speedRelative="0.80" departed="0" arrived="0" entered="5" left="5" laneChangedFrom="0" laneChangedTo="0" flow="81.82"/>
        <edge id="1062498629#8" sampledSeconds="36.71" traveltime="7.17" overlapTraveltime="7.34" density="1.88" overlapDensity="1.93" laneDensity="1.88" occupancy="0.41" waitingTime="0.00" timeLoss="5.31" speed="12.09" speedRelative="0.87" departed="0" arrived="0" entered="5" left="5" laneChangedFrom="0" laneChangedTo="0" flow="81.82"/>
        <edge id="1062498629#9" sampledSeconds="28.19" traveltime="5.44" overlapTraveltime="5.64" density="1.87" overlapDensity="1.93" laneDensity="1.87" occupancy="0.41" waitingTime="0.00" timeLoss="3.97" speed="12.14" speedRelative="0.87" departed="0" arrived="0" entered="5" left="5" laneChangedFrom="0" laneChangedTo="0" flow="81.82"/>
        <edge id="1125912897" sampledSeconds="0.00" departed="0" arrived="0" entered="0" left="0" laneChangedFrom="0" laneChangedTo="0"/>
        <edge id="1150062811#0" sampledSeconds="450.28" traveltime="60.15" overlapTraveltime="63.01" density="19.97" overlapDensity="20.08" laneDensity="19.97" occupancy="9.86" waitingTime="60.00" timeLoss="194.18" speed="1.70" speedRelative="0.61" departed="5" arrived="0" entered="6" left="2" laneChangedFrom="0" laneChangedTo="0" teleported="1" flow="121.88"/>
        <edge id="1150062811#1" sampledSeconds="0.00" departed="0" arrived="0" entered="1" left="0" laneChangedFrom="0" laneChangedTo="0"/>
        <edge id="1150062811#2" sampledSeconds="0.00" departed="0" arrived="0" entered="0" left="0" laneChangedFrom="0" laneChangedTo="0"/>
        <edge id="1150062812#0" sampledSeconds="0.00" departed="0" arrived="0" entered="0" left="0" laneChangedFrom="0" laneChangedTo="0"/>
        <edge id="1150062812#1" sampledSeconds="0.00" departed="0" arrived="0" entered="0" left="0" laneChangedFrom="0" laneChangedTo="0"/>
        <edge id="1150062813" sampledSeconds="0.00" departed="0" arrived="0" entered="0" left="0" laneChangedFrom="0" laneChangedTo="0"/>
        <edge id="1193997327#0" sampledSeconds="0.00" departed="0" arrived="0" entered="0" left="0" laneChangedFrom="0" laneChangedTo="0"/>
        <edge id="1193997327#1" sampledSeconds="0.00" departed="0" arrived="0" entered="0" left="0" laneChangedFrom="0" laneChangedTo="0"/>
        <edge id="1193997327#3" sampledSeconds="0.00" departed="0" arrived="0" entered="0" left="0" laneChangedFrom="0" laneChangedTo="0"/>
        <edge id="1193997327#4" sampledSeconds="0.00" departed="0" arrived="0" entered="0" left="0" laneChangedFrom="0" laneChangedTo="0"/>
        <edge id="1193997328#0" sampledSeconds="0.00" departed="0" arrived="0" entered="0" left="0" laneChangedFrom="0" laneChangedTo="0"/>
        <edge id="1193997328#1" sampledSeconds="0.00" departed="0" arrived="0" entered="0" left="0" laneChangedFrom="0" laneChangedTo="0"/>
        <edge id="1193997328#2" sampledSeconds="42.08" traveltime="8.09" overlapTraveltime="8.42" density="4.81" overlapDensity="5.00" laneDensity="4.81" occupancy="0.77" waitingTime="0.00" timeLoss="6.99" speed="4.73" speedRelative="0.85" departed="0" arrived="0" entered="5" left="5" laneChangedFrom="0" laneChangedTo="0" flow="81.82"/>