<?xml version="1.0" encoding="UTF-8"?>

<!-- generated on 2026-02-06T14:43:17.832810+07:00 by Eclipse SUMO sumo v1_25_0+0904-59bbc76848e
<sumoConfiguration xmlns:xsi="http://www.w3.org/2001/XMLSchema-instance" xsi:noNamespaceSchemaLocation="http://sumo.dlr.de/xsd/sumoConfiguration.xsd">

    <input>
        <net-file value="maps/NinhKieuBridge/osm.net.xml.gz"/>
        <route-files value="maps/NinhKieuBridge/osm_pt.rou.xml,maps/NinhKieuBridge/osm.bicycle.trips.xml,maps/NinhKieuBridge/osm.motorcycle.trips.xml,maps/NinhKieuBridge/osm.passenger.trips.xml,maps/NinhKieuBridge/osm.pedestrian.rou.xml"/>
        <additional-files value="maps/NinhKieuBridge/osm.poly.xml.gz,maps/NinhKieuBridge/osm_stops.add.xml,maps/NinhKieuBridge/output.add.xml"/>
    </input>

    <output>
        <tripinfo-output value="maps/NinhKieuBridge/tripinfos.xml"/>
        <stop-output value="maps/NinhKieuBridge/stopinfos.xml"/>
        <statistic-output value="maps/NinhKieuBridge/stats.xml"/>
    </output>

    <processing>
        <ignore-route-errors value="true"/>
        <scale value="7.0"/>
        <tls.actuated.jam-threshold value="30"/>
    </processing>

    <routing>
        <device.rerouting.adaptation-steps value="18"/>
        <device.rerouting.adaptation-interval value="10"/>
    </routing>

    <report>
        <verbose value="true"/>
        <no-warnings value="true"/>
        <no-step-log value="true"/>
    </report>

    <emissions>
        <device.emissions.probability value="1.0"/>
    </emissions>

    <traci_server>
        <remote-port value="38493"/>
    </traci_server>

    <gui_only>
        <gui-settings-file value="maps/NinhKieuBridge/osm.view.xml"/>
        <quit-on-end value="true"/>
        <start value="true"/>
        <delay value="20"/>
    </gui_only>

</sumoConfiguration>
-->

<tripinfos xmlns:xsi="http://www.w3.org/2001/XMLSchema-instance" xsi:noNamespaceSchemaLocation="http://sumo.dlr.de/xsd/tripinfo_file.xsd">
    <tripinfo id="veh0" depart="0.00" departLane="-166333704#0_0" departPos="5.10" departSpeed="0.00" departDelay="0.00" arrival="45.00" arrivalLane="-1062498629#0_0" arrivalPos="325.06" arrivalSpeed="15.05" duration="45.00" routeLength="621.58" waitingTime="0.00" waitingCount="0" stopTime="0.00" timeLoss="4.41" rerouteNo="1" devices="tripinfo_veh0 routing_veh0 emissions_veh0" vType="veh_passenger" speedFactor="1.13" vaporized="">
        <emissions CO_abs="860.55" CO2_abs="128925.09" HC_abs="5.78" PMx_abs="15.07" NOx_abs="45.16" fuel_abs="41795.73" electricity_abs="0.00"/>
    </tripinfo>
    <tripinfo id="veh0.1" depart="3.00" departLane="-166333704#0_0" departPos="5.10" departSpeed="0.00" departDelay="3.00" arrival="57.00" arrivalLane="-1062498629#0_0" arrivalPos="325.06" arrivalSpeed="11.76" duration="54.00" routeLength="621.58" waitingTime="0.00" waitingCount="0" stopTime="0.00" timeLoss="5.00" rerouteNo="1" devices="tripinfo_veh0.1 routing_veh0.1 emissions_veh0.1" vType="veh_passenger" speedFactor="0.93" vaporized="">
        <emissions CO_abs="615.58" CO2_abs="122626.89" HC_abs="4.11" PMx_abs="13.21" NOx_abs="41.93" fuel_abs="39754.02" electricity_abs="0.00"/>
    </tripinfo>
    <tripinfo id="veh0.2" depart="6.00" departLane="-166333704#0_0" departPos="5.10" departSpeed="0.00" departDelay="6.00" arrival="59.00" arrivalLane="-1062498629#0_0" arrivalPos="325.06" arrivalSpeed="15.74" duration="53.00" routeLength="621.58" waitingTime="0.00" waitingCount="0" stopTime="0.00" timeLoss="13.70" rerouteNo="1" devices="tripinfo_veh0.2 routing_veh0.2 emissions_veh0.2" vType="veh_passenger" speedFactor="1.18" vaporized="">
        <emissions CO_abs="925.10" CO2_abs="147856.72" HC_abs="6.16" PMx_abs="14.27" NOx_abs="51.16" fuel_abs="47933.05" electricity_abs="0.00"/>
    </tripinfo>
    <tripinfo id="veh0.3" depart="9.00" departLane="-166333704#0_0" departPos="5.10" departSpeed="0.00" departDelay="9.00" arrival="60.00" arrivalLane="-1062498629#0_0" arrivalPos="325.06" arrivalSpeed="15.68" duration="51.00" routeLength="621.58" waitingTime="0.00" waitingCount="0" stopTime="0.00" timeLoss="11.44" rerouteNo="1" devices="tripinfo_veh0.3 routing_veh0.3 emissions_veh0.3" vType="veh_passenger" speedFactor="1.15" vaporized="">
        <emissions CO_abs="1009.65" CO2_abs="149686.97" HC_abs="6.71" PMx_abs="13.70" NOx_abs="51.85" fuel_abs="48526.32" electricity_abs="0.00"/>
    </tripinfo>
    <tripinfo id="veh0.4" depart="12.00" departLane="-166333704#0_0" departPos="5.10" departSpeed="0.00" departDelay="12.00" arrival="62.00" arrivalLane="-1062498629#0_0" arrivalPos="325.06" arrivalSpeed="13.29" duration="50.00" routeLength="621.58" waitingTime="0.00" waitingCount="0" stopTime="0.00" timeLoss="4.80" rerouteNo="1" devices="tripinfo_veh0.4 routing_veh0.4 emissions_veh0.4" vType="veh_passenger" speedFactor="1.01" vaporized="">
        <emissions CO_abs="659.08" CO2_abs="120004.75" HC_abs="4.42" PMx_abs="13.43" NOx_abs="41.33" fuel_abs="38903.94" electricity_abs="0.00"/>
    </tripinfo>
    <tripinfo id="veh0.5" depart="15.00" departLane="-166333704#0_0" departPos="5.10" departSpeed="0.00" departDelay="15.00" arrival="64.00" arrivalLane="-1062498629#0_0" arrivalPos="325.06" arrivalSpeed="15.90" duration="49.00" routeLength="621.58" waitingTime="0.00" waitingCount="0" stopTime="0.00" timeLoss="9.59" rerouteNo="1" devices="tripinfo_veh0.5 routing_veh0.5 emissions_veh0.5" vType="veh_passenger" speedFactor="1.17" vaporized="">
        <emissions CO_abs="913.24" CO2_abs="136013.20" HC_abs="6.09" PMx_abs="13.66" NOx_abs="47.40" fuel_abs="44093.52" electricity_abs="0.00"/>
    </tripinfo>
    <tripinfo id="veh0.6" depart="18.00" departLane="-166333704#0_0" departPos="5.10" departSpeed="0.00" departDelay="18.00" arrival="69.00" arrivalLane="-1062498629#0_0" arrivalPos="325.06" arrivalSpeed="13.20" duration="51.00" routeLength="621.58" waitingTime="0.00" waitingCount="0" stopTime="0.00" timeLoss="5.07" rerouteNo="1" devices="tripinfo_veh0.6 routing_veh0.6 emissions_veh0.6" vType="veh_passenger" speedFactor="0.99" vaporized="">
        <emissions CO_abs="709.06" CO2_abs="129379.49" HC_abs="4.75" PMx_abs="14.44" NOx_abs="44.66" fuel_abs="41943.12" electricity_abs="0.00"/>
    </tripinfo>
    <personinfo id="ped1.2" depart="21.00" type="ped_pedestrian" speedFactor="1.17" duration="62.00" waitingTime="1.00" timeLoss="10.14" traveltime="62.00">
        <walk depart="21.00" departPos="0.00" arrival="83.00" arrivalPos="69.66" duration="62.00" routeLength="84.19" timeLoss="10.14" maxSpeed="1.62" waitingTime="1.00"/>
    </personinfo>
    <personinfo id="ped3" depart="61.00" type="ped_pedestrian" speedFactor="1.03" duration="31.00" waitingTime="0.00" timeLoss="3.81" traveltime="31.00">
        <walk depart="61.00" departPos="0.00" arrival="92.00" arrivalPos="19.36" duration="31.00" routeLength="38.90" timeLoss="3.81" maxSpeed="1.43" waitingTime="0.00"/>
    </personinfo>
    <personinfo id="ped1.3" depart="21.00" type="ped_pedestrian" speedFactor="1.02" duration="71.00" waitingTime="2.00" timeLoss="11.38" traveltime="71.00">
        <walk depart="21.00" departPos="0.00" arrival="92.00" arrivalPos="69.66" duration="71.00" routeLength="84.19" timeLoss="11.38" maxSpeed="1.41" waitingTime="2.00"/>
    </personinfo>
    <personinfo id="ped1.4" depart="21.00" type="ped_pedestrian" speedFactor="1.10" duration="72.00" waitingTime="6.00" timeLoss="16.68" traveltime="72.00">
        <walk depart="21.00" departPos="0.00" arrival="93.00" arrivalPos="69.66" duration="72.00" routeLength="84.19" timeLoss="16.68" maxSpeed="1.52" waitingTime="6.00"/>
    </personinfo>
    <personinfo id="ped3.2" depart="61.00" type="ped_pedestrian" speedFactor="1.06" duration="33.00" waitingTime="1.00" timeLoss="6.70" traveltime="33.00">
        <walk depart="61.00" departPos="0.00" arrival="94.00" arrivalPos="19.36" duration="33.00" routeLength="38.90" timeLoss="6.70" maxSpeed="1.48" waitingTime="1.00"/>
    </personinfo>
    <personinfo id="ped1.5" depart="21.00" type="ped_pedestrian" speedFactor="1.00" duration="76.00" waitingTime="4.00" timeLoss="15.58" traveltime="76.00">
        <walk depart="21.00" departPos="0.00" arrival="97.00" arrivalPos="69.66" duration="76.00" routeLength="84.19" timeLoss="15.58" maxSpeed="1.39" waitingTime="4.00"/>
    </personinfo>
    <personinfo id="ped3.1" depart="61.00" type="ped_pedestrian" speedFactor="0.87" duration="37.00" waitingTime="0.00" timeLoss="4.91" traveltime="37.00">
        <walk depart="61.00" departPos="0.00" arrival="98.00" arrivalPos="19.36" duration="37.00" routeLength="38.90" timeLoss="4.91" maxSpeed="1.21" waitingTime="0.00"/>
    </personinfo>
    <personinfo id="ped3.6" depart="61.00" type="ped_pedestrian" speedFactor="1.03" duration="38.00" waitingTime="5.00" timeLoss="10.94" traveltime="38.00">
        <walk depart="61.00" departPos="0.00" arrival="99.00" arrivalPos="19.36" duration="38.00" routeLength="38.90" timeLoss="10.94" maxSpeed="1.44" waitingTime="5.00"/>
    </personinfo>
    <personinfo id="ped1" depart="21.00" type="ped_pedestrian" speedFactor="0.85" duration="80.00" waitingTime="0.00" timeLoss="8.72" traveltime="80.00">
        <walk depart="21.00" departPos="0.00" arrival="101.00" arrivalPos="69.66" duration="80.00" routeLength="84.19" timeLoss="8.72" maxSpeed="1.18" waitingTime="0.00"/>
    </personinfo>
    <personinfo id="ped1.6" depart="21.00" type="ped_pedestrian" speedFactor="1.00" duration="80.00" waitingTime="2.00" timeLoss="19.14" traveltime="80.00">
        <walk depart="21.00" departPos="0.00" arrival="101.00" arrivalPos="69.66" duration="80.00" routeLength="84.19" timeLoss="19.14" maxSpeed="1.38" waitingTime="2.00"/>
    </personinfo>
    <personinfo id="ped3.3" depart="61.00" type="ped_pedestrian" speedFactor="0.83" duration="41.00" waitingTime="1.00" timeLoss="7.16" traveltime="41.00">
        <walk depart="61.00" departPos="0.00" arrival="102.00" arrivalPos="19.36" duration="41.00" routeLength="38.90" timeLoss="7.16" maxSpeed="1.15" waitingTime="1.00"/>
    </personinfo>
    <personinfo id="ped3.4" depart="61.00" type="ped_pedestrian" speedFactor="0.95" duration="42.00" waitingTime="2.00" timeLoss="12.44" traveltime="42.00">
        <walk depart="61.00" departPos="0.00" arrival="103.00" arrivalPos="19.36" duration="42.00" routeLength="38.90" timeLoss="12.44" maxSpeed="1.32" waitingTime="2.00"/>
    </personinfo>
    <personinfo id="ped3.5" depart="61.00" type="ped_pedestrian" speedFactor="0.87" duration="43.00" waitingTime="2.00" timeLoss="10.99" traveltime="43.00">
        <walk depart="61.00" departPos="0.00" arrival="104.00" arrivalPos="19.36" duration="43.00" routeLength="38.90" timeLoss="10.99" maxSpeed="1.22" waitingTime="2.00"/>
    </personinfo>
    <personinfo id="ped1.1" depart="21.00" type="ped_pedestrian" speedFactor="0.85" duration="85.00" waitingTime="4.00" timeLoss="14.09" traveltime="85.00">
        <walk depart="21.00" departPos="0.00" arrival="106.00" arrivalPos="69.66" duration="85.00" routeLength="84.19" timeLoss="14.09" maxSpeed="1.19" waitingTime="4.00"/>
    </personinfo>
    <tripinfo id="bike1" depart="29.00" departLane="-43140831#5_0" departPos="1.70" departSpeed="0.00" departDelay="0.90" arrival="112.00" arrivalLane="-43140831#1_0" arrivalPos="107.04" arrivalSpeed="4.75" duration="83.00" routeLength="371.54" waitingTime="0.00" waitingCount="0" stopTime="0.00" timeLoss="7.14" rerouteNo="1" devices="tripinfo_bike1 routing_bike1 emissions_bike1" vType="bike_bicycle" speedFactor="0.89" vaporized="">
        <emissions CO_abs="0.00" CO2_abs="0.00" HC_abs="0.00" PMx_abs="0.00" NOx_abs="0.00" fuel_abs="0.00" electricity_abs="0.00"/>
    </tripinfo>
    <tripinfo id="bike1.1" depart="31.00" departLane="-43140831#5_0" departPos="1.70" departSpeed="0.00" departDelay="2.90" arrival="114.00" arrivalLane="-43140831#1_0" arrivalPos="107.04" arrivalSpeed="4.71" duration="83.00" routeLength="371.54" waitingTime="0.00" waitingCount="0" stopTime="0.00" timeLoss="10.90" rerouteNo="1" devices="tripinfo_bike1.1 routing_bike1.1 emissions_bike1.1" vType="bike_bicycle" speedFactor="0.94" vaporized="">
        <emissions CO_abs="0.00" CO2_abs="0.00" HC_abs="0.00" PMx_abs="0.00" NOx_abs="0.00" fuel_abs="0.00" electricity_abs="0.00"/>
    </tripinfo>
    <tripinfo id="bike1.2" depart="34.00" departLane="-43140831#5_0" departPos="1.70" departSpeed="0.00" departDelay="5.90" arrival="120.00" arrivalLane="-43140831#1_0" arrivalPos="107.04" arrivalSpeed="4.54" duration="86.00" routeLength="371.54" waitingTime="0.00" waitingCount="0" stopTime="0.00" timeLoss="7.84" rerouteNo="1" devices="tripinfo_bike1.2 routing_bike1.2 emissions_bike1.2" vType="bike_bicycle" speedFactor="0.86" vaporized="">
        <emissions CO_abs="0.00" CO2_abs="0.00" HC_abs="0.00" PMx_abs="0.00" NOx_abs="0.00" fuel_abs="0.00" electricity_abs="0.00"/>
    </tripinfo>
    <tripinfo id="bike1.3" depart="36.00" departLane="-43140831#5_0" departPos="1.70" departSpeed="0.00" departDelay="7.90" arrival="122.00" arrivalLane="-43140831#1_0" arrivalPos="107.04" arrivalSpeed="5.72" duration="86.00" routeLength="371.54" waitingTime="0.00" waitingCount="0" stopTime="0.00" timeLoss="24.04" rerouteNo="1" devices="tripinfo_bike1.3 routing_bike1.3 emissions_bike1.3" vType="bike_bicycle" speedFactor="1.09" vaporized="">
        <emissions CO_abs="0.00" CO2_abs="0.00" HC_abs="0.00" PMx_abs="0.00" NOx_abs="0.00" fuel_abs="0.00" electricity_abs="0.00"/>
    </tripinfo>
    <tripinfo id="bike1.4" depart="39.00" departLane="-43140831#5_0" departPos="1.70" departSpeed="0.00" departDelay="10.90" arrival="123.00" arrivalLane="-43140831#1_0" arrivalPos="107.04" arrivalSpeed="5.51" duration="84.00" routeLength="371.54" waitingTime="0.00" waitingCount="0" stopTime="0.00" timeLoss="18.69" rerouteNo="1" devices="tripinfo_bike1.4 routing_bike1.4 emissions_bike1.4" vType="bike_bicycle" speedFactor="1.03" vaporized="">
        <emissions CO_abs="0.00" CO2_abs="0.00" HC_abs="0.00" PMx_abs="0.00" NOx_abs="0.00" fuel_abs="0.00" electricity_abs="0.00"/>
    </tripinfo>
    <tripinfo id="bike1.5" depart="41.00" departLane="-43140831#5_0" departPos="1.70" departSpeed="0.00" departDelay="12.90" arrival="125.00" arrivalLane="-43140831#1_0" arrivalPos="107.04" arrivalSpeed="5.26" duration="84.00" routeLength="371.54" waitingTime="0.00" waitingCount="0" stopTime="0.00" timeLoss="19.52" rerouteNo="1" devices="tripinfo_bike1.5 routing_bike1.5 emissions_bike1.5" vType="bike_bicycle" speedFactor="1.05" vaporized="">
        <emissions CO_abs="0.00" CO2_abs="0.00" HC_abs="0.00" PMx_abs="0.00" NOx_abs="0.00" fuel_abs="0.00" electricity_abs="0.00"/>
    </tripinfo>
    <tripinfo id="bike1.6" depart="44.00" departLane="-43140831#5_0" departPos="1.70" departSpeed="0.00" departDelay="15.90" arrival="126.00" arrivalLane="-43140831#1_0" arrivalPos="107.04" arrivalSpeed="5.84" duration="82.00" routeLength="371.54" waitingTime="0.00" waitingCount="0" stopTime="0.00" timeLoss="22.25" rerouteNo="1" devices="tripinfo_bike1.6 routing_bike1.6 emissions_bike1.6" vType="bike_bicycle" speedFactor="1.12" vaporized="">
        <emissions CO_abs="0.00" CO2_abs="0.00" HC_abs="0.00" PMx_abs="0.00" NOx_abs="0.00" fuel_abs="0.00" electricity_abs="0.00"/>
    </tripinfo>
    <tripinfo id="bike0" depart="0.00" departLane="1193997329_0" departPos="1.70" departSpeed="0.00" departDelay="0.00" arrival="127.00" arrivalLane="-1062498629#2_0" arrivalPos="232.59" arrivalSpeed="5.65" duration="127.00" routeLength="681.44" waitingTime="0.00" waitingCount="0" stopTime="0.00" timeLoss="10.38" rerouteNo="1" devices="tripinfo_bike0 routing_bike0 emissions_bike0" vType="bike_bicycle" speedFactor="1.06" vaporized="">
        <emissions CO_abs="0.00" CO2_abs="0.00" HC_abs="0.00" PMx_abs="0.00" NOx_abs="0.00" fuel_abs="0.00" electricity_abs="0.00"/>
    </tripinfo>
    <personinfo id="ped2.3" depart="41.00" type="ped_pedestrian" speedFactor="1.10" duration="88.00" waitingTime="1.00" timeLoss="10.60" traveltime="88.00">
        <walk depart="41.00" departPos="0.00" arrival="129.00" arrivalPos="13.63" duration="88.00" routeLength="117.78" timeLoss="10.60" maxSpeed="1.52" waitingTime="1.00"/>
    </personinfo>
    <personinfo id="ped2" depart="41.00" type="ped_pedestrian" speedFactor="0.97" duration="98.00" waitingTime="0.00" timeLoss="10.68" traveltime="98.00">
        <walk depart="41.00" departPos="0.00" arrival="139.00" arrivalPos="13.63" duration="98.00" routeLength="117.78" timeLoss="10.68" maxSpeed="1.35" waitingTime="0.00"/>
    </personinfo>
    <personinfo id="ped2.2" depart="41.00" type="ped_pedestrian" speedFactor="0.93" duration="103.00" waitingTime="1.00" timeLoss="11.61" traveltime="103.00">
        <walk depart="41.00" departPos="0.00" arrival="144.00" arrivalPos="13.63" duration="103.00" routeLength="117.78" timeLoss="11.61" maxSpeed="1.29" waitingTime="1.00"/>
    </personinfo>
    <personinfo id="ped2.5" depart="41.00" type="ped_pedestrian" speedFactor="1.00" duration="103.00" waitingTime="1.00" timeLoss="18.10" traveltime="103.00">
        <walk depart="41.00" departPos="0.00" arrival="144.00" arrivalPos="13.63" duration="103.00" routeLength="117.78" timeLoss="18.10" maxSpeed="1.39" waitingTime="1.00"/>
    </personinfo>
    <personinfo id="ped2.4" depart="41.00" type="ped_pedestrian" speedFactor="1.07" duration="103.00" waitingTime="1.00" timeLoss="23.58" traveltime="103.00">
        <walk depart="41.00" departPos="0.00" arrival="144.00" arrivalPos="13.63" duration="103.00" routeLength="117.78" timeLoss="23.58" maxSpeed="1.48" waitingTime="1.00"/>
    </personinfo>
    <tripinfo id="bike0.1" depart="3.00" departLane="1193997329_0" departPos="1.70" departSpeed="0.00" departDelay="3.00" arrival="145.00" arrivalLane="-1062498629#2_0" arrivalPos="232.59" arrivalSpeed="5.09" duration="142.00" routeLength="681.44" waitingTime="0.00" waitingCount="0" stopTime="0.00" timeLoss="10.96" rerouteNo="1" devices="tripinfo_bike0.1 routing_bike0.1 emissions_bike0.1" vType="bike_bicycle" speedFactor="0.94" vaporized="">
        <emissions CO_abs="0.00" CO2_abs="0.00" HC_abs="0.00" PMx_abs="0.00" NOx_abs="0.00" fuel_abs="0.00" electricity_abs="0.00"/>
    </tripinfo>
    <tripinfo id="veh4" depart="93.00" departLane="1284876490#0_0" departPos="5.10" departSpeed="0.00" departDelay="0.60" arrival="145.00" arrivalLane="952670885#2_0" arrivalPos="56.90" arrivalSpeed="14.46" duration="52.00" routeLength="600.78" waitingTime="0.00" waitingCount="0" stopTime="0.00" timeLoss="11.28" rerouteNo="1" devices="tripinfo_veh4 routing_veh4 emissions_veh4" vType="veh_passenger" speedFactor="1.11" vaporized="">
        <emissions CO_abs="1291.62" CO2_abs="191090.92" HC_abs="8.58" PMx_abs="15.62" NOx_abs="64.66" fuel_abs="61948.75" electricity_abs="0.00"/>
    </tripinfo>
    <personinfo id="ped2.1" depart="41.00" type="ped_pedestrian" speedFactor="0.90" duration="106.00" waitingTime="0.00" timeLoss="11.93" traveltime="106.00">
        <walk depart="41.00" departPos="0.00" arrival="147.00" arrivalPos="13.63" duration="106.00" routeLength="117.78" timeLoss="11.93" maxSpeed="1.25" waitingTime="0.00"/>
    </personinfo>
    <tripinfo id="bike0.2" depart="5.00" departLane="1193997329_0" departPos="1.70" departSpeed="0.00" departDelay="5.00" arrival="147.00" arrivalLane="-1062498629#2_0" arrivalPos="232.59" arrivalSpeed="5.34" duration="142.00" routeLength="681.44" waitingTime="0.00" waitingCount="0" stopTime="0.00" timeLoss="19.79" rerouteNo="1" devices="tripinfo_bike0.2 routing_bike0.2 emissions_bike0.2" vType="bike_bicycle" speedFactor="1.01" vaporized="">
        <emissions CO_abs="0.00" CO2_abs="0.00" HC_abs="0.00" PMx_abs="0.00" NOx_abs="0.00" fuel_abs="0.00" electricity_abs="0.00"/>
    </tripinfo>
    <tripinfo id="bike0.3" depart="8.00" departLane="1193997329_0" departPos="1.70" departSpeed="0.00" departDelay="8.00" arrival="148.00" arrivalLane="-1062498629#2_0" arrivalPos="232.59" arrivalSpeed="5.69" duration="140.00" routeLength="681.44" waitingTime="0.00" waitingCount="0" stopTime="0.00" timeLoss="26.39" rerouteNo="1" devices="tripinfo_bike0.3 routing_bike0.3 emissions_bike0.3" vType="bike_bicycle" speedFactor="1.08" vaporized="">
        <emissions CO_abs="0.00" CO2_abs="0.00" HC_abs="0.00" PMx_abs="0.00" NOx_abs="0.00" fuel_abs="0.00" electricity_abs="0.00"/>
    </tripinfo>
    <tripinfo id="veh4.1" depart="96.00" departLane="1284876490#0_0" departPos="5.10" departSpeed="0.00" departDelay="3.60" arrival="148.00" arrivalLane="952670885#2_0" arrivalPos="56.90" arrivalSpeed="15.85" duration="52.00" routeLength="600.78" waitingTime="0.00" waitingCount="0" stopTime="0.00" timeLoss="12.51" rerouteNo="1" devices="tripinfo_veh4.1 routing_veh4.1 emissions_veh4.1" vType="veh_passenger" speedFactor="1.16" vaporized="">
        <emissions CO_abs="1428.98" CO2_abs="194833.63" HC_abs="9.48" PMx_abs="14.80" NOx_abs="66.63" fuel_abs="63161.99" electricity_abs="0.00"/>
    </tripinfo>
    <tripinfo id="bike0.4" depart="10.00" departLane="1193997329_0" departPos="1.70" departSpeed="0.00" departDelay="10.00" arrival="150.00" arrivalLane="-1062498629#2_0" arrivalPos="232.59" arrivalSpeed="5.54" duration="140.00" routeLength="681.44" waitingTime="0.00" waitingCount="0" stopTime="0.00" timeLoss="20.23" rerouteNo="1" devices="tripinfo_bike0.4 routing_bike0.4 emissions_bike0.4" vType="bike_bicycle" speedFactor="1.03" vaporized="">
        <emissions CO_abs="0.00" CO2_abs="0.00" HC_abs="0.00" PMx_abs="0.00" NOx_abs="0.00" fuel_abs="0.00" electricity_abs="0.00"/>
    </tripinfo>
    <personinfo id="ped2.6" depart="41.00" type="ped_pedestrian" speedFactor="0.84" duration="115.00" waitingTime="3.00" timeLoss="14.19" traveltime="115.00">
        <walk depart="41.00" departPos="0.00" arrival="156.00" arrivalPos="13.63" duration="115.00" routeLength="117.78" timeLoss="14.19" maxSpeed="1.17" waitingTime="3.00"/>
    </personinfo>
    <tripinfo id="veh4.2" depart="99.00" departLane="1284876490#0_0" departPos="5.10" departSpeed="0.00" departDelay="6.60" arrival="157.00" arrivalLane="952670885#2_0" arrivalPos="56.90" arrivalSpeed="12.79" duration="58.00" routeLength="600.78" waitingTime="0.00" waitingCount="0" stopTime="0.00" timeLoss="9.36" rerouteNo="1" devices="tripinfo_veh4.2 routing_veh4.2 emissions_veh4.2" vType="veh_passenger" speedFactor="0.94" vaporized="">
        <emissions CO_abs="963.13" CO2_abs="170806.35" HC_abs="6.39" PMx_abs="13.61" NOx_abs="56.75" fuel_abs="55372.88" electricity_abs="0.00"/>
    </tripinfo>
    <tripinfo id="veh4.3" depart="102.00" departLane="1284876490#0_0" departPos="5.10" departSpeed="0.00" departDelay="9.60" arrival="158.00" arrivalLane="952670885#2_0" arrivalPos="56.90" arrivalSpeed="14.17" duration="56.00" routeLength="600.78" waitingTime="0.00" waitingCount="0" stopTime="0.00" timeLoss="16.03" rerouteNo="1" devices="tripinfo_veh4.3 routing_veh4.3 emissions_veh4.3" vType="veh_passenger" speedFactor="1.13" vaporized="">
        <emissions CO_abs="1153.56" CO2_abs="180941.57" HC_abs="7.64" PMx_abs="13.48" NOx_abs="60.53" fuel_abs="58658.46" electricity_abs="0.00"/>
    </tripinfo>
    <tripinfo id="veh4.4" depart="105.00" departLane="1284876490#0_0" departPos="5.10" departSpeed="0.00" departDelay="12.60" arrival="176.00" arrivalLane="952670885#2_0" arrivalPos="56.90" arrivalSpeed="9.18" duration="71.00" routeLength="600.78" waitingTime="0.00" waitingCount="0" stopTime="0.00" timeLoss="9.92" rerouteNo="1" devices="tripinfo_veh4.4 routing_veh4.4 emissions_veh4.4" vType="veh_passenger" speedFactor="0.73" vaporized="">
        <emissions CO_abs="529.52" CO2_abs="151618.14" HC_abs="3.52" PMx_abs="12.35" NOx_abs="49.25" fuel_abs="49152.50" electricity_abs="0.00"/>
    </tripinfo>
    <tripinfo id="bike0.5" depart="13.00" departLane="1193997329_0" departPos="1.70" departSpeed="0.00" departDelay="13.00" arrival="178.00" arrivalLane="-1062498629#2_0" arrivalPos="232.59" arrivalSpeed="4.35" duration="165.00" routeLength="681.44" waitingTime="0.00" waitingCount="0" stopTime="0.00" timeLoss="16.57" rerouteNo="1" devices="tripinfo_bike0.5 routing_bike0.5 emissions_bike0.5" vType="bike_bicycle" speedFactor="0.83" vaporized="">
        <emissions CO_abs="0.00" CO2_abs="0.00" HC_abs="0.00" PMx_abs="0.00" NOx_abs="0.00" fuel_abs="0.00" electricity_abs="0.00"/>
    </tripinfo>
    <tripinfo id="veh4.5" depart="108.00" departLane="1284876490#0_0" departPos="5.10" departSpeed="0.00" departDelay="15.60" arrival="178.00" arrivalLane="952670885#2_0" arrivalPos="56.90" arrivalSpeed="13.90" duration="70.00" routeLength="600.78" waitingTime="0.00" waitingCount="0" stopTime="0.00" timeLoss="30.30" rerouteNo="1" devices="tripinfo_veh4.5 routing_veh4.5 emissions_veh4.5" vType="veh_passenger" speedFactor="1.14" vaporized="">
        <emissions CO_abs="854.61" CO2_abs="180849.90" HC_abs="5.65" PMx_abs="12.46" NOx_abs="58.20" fuel_abs="58628.77" electricity_abs="0.00"/>
    </tripinfo>
    <tripinfo id="bike0.6" depart="15.00" departLane="1193997329_0" departPos="1.70" departSpeed="0.00" departDelay="15.00" arrival="179.00" arrivalLane="-1062498629#2_0" arrivalPos="232.59" arrivalSpeed="5.45" duration="164.00" routeLength="681.44" waitingTime="0.00" waitingCount="0" stopTime="0.00" timeLoss="46.22" rerouteNo="1" devices="tripinfo_bike0.6 routing_bike0.6 emissions_bike0.6" vType="bike_bicycle" speedFactor="1.05" vaporized="">
        <emissions CO_abs="0.00" CO2_abs="0.00" HC_abs="0.00" PMx_abs="0.00" NOx_abs="0.00" fuel_abs="0.00" electricity_abs="0.00"/>
    </tripinfo>
    <tripinfo id="veh4.6" depart="111.00" departLane="1284876490#0_0" departPos="5.10" departSpeed="0.00" departDelay="18.60" arrival="180.00" arrivalLane="952670885#2_0" arrivalPos="56.90" arrivalSpeed="11.75" duration="69.00" routeLength="600.78" waitingTime="0.00" waitingCount="0" stopTime="0.00" timeLoss="17.74" rerouteNo="1" devices="tripinfo_veh4.6 routing_veh4.6 emissions_veh4.6" vType="veh_passenger" speedFactor="0.89" vaporized="">
        <emissions CO_abs="786.97" CO2_abs="169836.54" HC_abs="5.21" PMx_abs="12.22" NOx_abs="55.30" fuel_abs="55058.49" electricity_abs="0.00"/>
    </tripinfo>
    <tripinfo id="motorcycle1" depart="70.00" departLane="-952052138#0_0" departPos="0.37" departSpeed="0.00" departDelay="0.70" arrival="186.00" arrivalLane="1062498629#1_0" arrivalPos="7.82" arrivalSpeed="8.70" duration="116.00" routeLength="725.68" waitingTime="12.00" waitingCount="1" stopTime="0.00" timeLoss="61.40" rerouteNo="1" devices="tripinfo_motorcycle1 routing_motorcycle1 emissions_motorcycle1" vType="motorcycle_motorcycle" speedFactor="1.01" vaporized="">
        <emissions CO_abs="2916.26" CO2_abs="176601.03" HC_abs="1981.36" PMx_abs="40.95" NOx_abs="194.15" fuel_abs="57263.54" electricity_abs="0.00"/>
    </tripinfo>
    <tripinfo id="motorcycle1.1" depart="71.00" departLane="-952052138#0_0" departPos="0.37" departSpeed="0.00" departDelay="1.70" arrival="189.00" arrivalLane="1062498629#1_0" arrivalPos="7.82" arrivalSpeed="8.68" duration="118.00" routeLength="725.68" waitingTime="10.00" waitingCount="1" stopTime="0.00" timeLoss="61.34" rerouteNo="1" devices="tripinfo_motorcycle1.1 routing_motorcycle1.1 emissions_motorcycle1.1" vType="motorcycle_motorcycle" speedFactor="0.97" vaporized="">
        <emissions CO_abs="2961.19" CO2_abs="197242.05" HC_abs="2215.43" PMx_abs="46.29" NOx_abs="206.81" fuel_abs="63956.60" electricity_abs="0.00"/>
    </tripinfo>
    <tripinfo id="motorcycle1.2" depart="73.00" departLane="-952052138#0_0" departPos="0.37" departSpeed="0.00" departDelay="3.70" arrival="195.00" arrivalLane="1062498629#1_0" arrivalPos="7.82" arrivalSpeed="11.93" duration="122.00" routeLength="725.68" waitingTime="5.00" waitingCount="1" stopTime="0.00" timeLoss="59.45" rerouteNo="1" devices="tripinfo_motorcycle1.2 routing_motorcycle1.2 emissions_motorcycle1.2" vType="motorcycle_motorcycle" speedFactor="0.89" vaporized="">
        <emissions CO_abs="2303.33" CO2_abs="177155.49" HC_abs="1962.95" PMx_abs="41.62" NOx_abs="177.19" fuel_abs="57443.43" electricity_abs="0.00"/>
    </tripinfo>
    <tripinfo id="veh2" depart="47.00" departLane="-1150062813_0" departPos="5.10" departSpeed="0.00" departDelay="0.80" arrival="196.00" arrivalLane="1062498629#3_0" arrivalPos="3.00" arrivalSpeed="13.33" duration="149.00" routeLength="872.46" waitingTime="3.00" waitingCount="1" stopTime="0.00" timeLoss="34.24" rerouteNo="1" devices="tripinfo_veh2 routing_veh2 emissions_veh2" vType="veh_passenger" speedFactor="1.03" vaporized="">
        <emissions CO_abs="1056.82" CO2_abs="285850.60" HC_abs="7.04" PMx_abs="19.92" NOx_abs="97.26" fuel_abs="92668.90" electricity_abs="0.00"/>
    </tripinfo>
    <tripinfo id="motorcycle1.3" depart="75.00" departLane="-952052138#0_0" departPos="0.37" departSpeed="0.00" departDelay="5.70" arrival="198.00" arrivalLane="1062498629#1_0" arrivalPos="7.82" arrivalSpeed="7.45" duration="123.00" routeLength="725.68" waitingTime="2.00" waitingCount="2" stopTime="0.00" timeLoss="56.46" rerouteNo="1" devices="tripinfo_motorcycle1.3 routing_motorcycle1.3 emissions_motorcycle1.3" vType="motorcycle_motorcycle" speedFactor="0.83" vaporized="">
        <emissions CO_abs="2304.01" CO2_abs="193845.79" HC_abs="2107.07" PMx_abs="44.20" NOx_abs="194.44" fuel_abs="62855.16" electricity_abs="0.00"/>
    </tripinfo>
    <tripinfo id="motorcycle1.4" depart="77.00" departLane="-952052138#0_0" departPos="0.37" departSpeed="0.00" departDelay="7.70" arrival="201.00" arrivalLane="1062498629#1_0" arrivalPos="7.82" arrivalSpeed="8.18" duration="124.00" routeLength="725.68" waitingTime="2.00" waitingCount="1" stopTime="0.00" timeLoss="60.59" rerouteNo="1" devices="tripinfo_motorcycle1.4 routing_motorcycle1.4 emissions_motorcycle1.4" vType="motorcycle_motorcycle" speedFactor="0.87" vaporized="">
        <emissions CO_abs="2573.13" CO2_abs="205506.97" HC_abs="2170.89" PMx_abs="45.97" NOx_abs="208.91" fuel_abs="66636.25" electricity_abs="0.00"/>
    </tripinfo>