<?xml version="1.0" encoding="UTF-8"?>

<!-- generated on 2026-02-01T21:08:25.101232+07:00 by Eclipse SUMO sumo v1_25_0+0904-59bbc76848e
<sumoConfiguration xmlns:xsi="http://www.w3.org/2001/XMLSchema-instance" xsi:noNamespaceSchemaLocation="http://sumo.dlr.de/xsd/sumoConfiguration.xsd">

    <input>
        <net-file value="maps/NinhKieuBridge/osm.net.xml.gz"/>
        <route-files value="maps/NinhKieuBridge/osm_pt.rou.xml,maps/NinhKieuBridge/osm.bicycle.trips.xml,maps/NinhKieuBridge/osm.motorcycle.trips.xml,maps/NinhKieuBridge/osm.passenger.trips.xml,maps/NinhKieuBridge/osm.pedestrian.rou.xml"/>
        <additional-files value="maps/NinhKieuBridge/osm.poly.xml.gz,maps/NinhKieuBridge/osm_stops.add.xml,maps/NinhKieuBridge/output.add.xml"/>
    </input>

    <output>
        <tripinfo-output value="maps/NinhKieuBridge/tripinfos.xml"/>
        <stop-output value="maps/NinhKieuBridge/stopinfos.xml"/>
        <statistic-output value="maps/NinhKieuBridge/stats.xml"/>
    </output>

    <processing>
        <ignore-route-errors value="true"/>
        <scale value="5.0"/>
        <tls.actuated.jam-threshold value="30"/>
    </processing>

    <routing>
        <device.rerouting.adaptation-steps value="18"/>
        <device.rerouting.adaptation-interval value="10"/>
    </routing>

    <report>
        <verbose value="true"/>
        <no-warnings value="true"/>
        <no-step-log value="true"/>
    </report>

    <emissions>
        <device.emissions.probability value="1.0"/>
    </emissions>

    <traci_server>
        <remote-port value="38321"/>
    </traci_server>

    <gui_only>
        <gui-settings-file value="maps/NinhKieuBridge/osm.view.xml"/>
        <quit-on-end value="true"/>
        <start value="true"/>
        <delay value="20"/>
    </gui_only>

</sumoConfiguration>
-->

<tripinfos xmlns:xsi="http://www.w3.org/2001/XMLSchema-instance" xsi:noNamespaceSchemaLocation="http://sumo.dlr.de/xsd/tripinfo_file.xsd">
    <tripinfo id="veh0" depart="0.00" departLane="-166333704#0_0" departPos="5.10" departSpeed="0.00" departDelay="0.00" arrival="49.00" arrivalLane="-1062498629#0_0" arrivalPos="325.06" arrivalSpeed="14.05" duration="49.00" routeLength="621.58" waitingTime="0.00" waitingCount="0" stopTime="0.00" timeLoss="4.54" rerouteNo="1" devices="tripinfo_veh0 routing_veh0 emissions_veh0" vType="veh_passenger" speedFactor="1.02" vaporized="">
        <emissions CO_abs="738.62" CO2_abs="127266.66" HC_abs="4.95" PMx_abs="14.20" NOx_abs="44.04" fuel_abs="41258.14" electricity_abs="0.00"/>
    </tripinfo>
    <tripinfo id="veh0.1" depart="3.00" departLane="-166333704#0_0" departPos="5.10" departSpeed="0.00" departDelay="3.00" arrival="53.00" arrivalLane="-1062498629#0_0" arrivalPos="325.06" arrivalSpeed="12.90" duration="50.00" routeLength="621.58" waitingTime="0.00" waitingCount="0" stopTime="0.00" timeLoss="4.40" rerouteNo="1" devices="tripinfo_veh0.1 routing_veh0.1 emissions_veh0.1" vType="veh_passenger" speedFactor="1.01" vaporized="">
        <emissions CO_abs="681.85" CO2_abs="122390.82" HC_abs="4.57" PMx_abs="14.04" NOx_abs="42.28" fuel_abs="39677.48" electricity_abs="0.00"/>
    </tripinfo>
    <tripinfo id="veh0.2" depart="6.00" departLane="-166333704#0_0" departPos="5.10" departSpeed="0.00" departDelay="6.00" arrival="58.00" arrivalLane="-1062498629#0_0" arrivalPos="325.06" arrivalSpeed="12.91" duration="52.00" routeLength="621.58" waitingTime="0.00" waitingCount="0" stopTime="0.00" timeLoss="4.94" rerouteNo="1" devices="tripinfo_veh0.2 routing_veh0.2 emissions_veh0.2" vType="veh_passenger" speedFactor="0.97" vaporized="">
        <emissions CO_abs="696.91" CO2_abs="122311.08" HC_abs="4.65" PMx_abs="12.36" NOx_abs="41.94" fuel_abs="39651.56" electricity_abs="0.00"/>
    </tripinfo>
    <tripinfo id="veh0.3" depart="9.00" departLane="-166333704#0_0" departPos="5.10" departSpeed="0.00" departDelay="9.00" arrival="65.00" arrivalLane="-1062498629#0_0" arrivalPos="325.06" arrivalSpeed="12.06" duration="56.00" routeLength="621.58" waitingTime="0.00" waitingCount="0" stopTime="0.00" timeLoss="4.81" rerouteNo="1" devices="tripinfo_veh0.3 routing_veh0.3 emissions_veh0.3" vType="veh_passenger" speedFactor="0.89" vaporized="">
        <emissions CO_abs="645.37" CO2_abs="127020.72" HC_abs="4.30" PMx_abs="12.55" NOx_abs="43.07" fuel_abs="41178.39" electricity_abs="0.00"/>
    </tripinfo>
    <tripinfo id="veh0.4" depart="12.00" departLane="-166333704#0_0" departPos="5.10" departSpeed="0.00" departDelay="12.00" arrival="73.00" arrivalLane="-1062498629#0_0" arrivalPos="325.06" arrivalSpeed="11.29" duration="61.00" routeLength="621.58" waitingTime="0.00" waitingCount="0" stopTime="0.00" timeLoss="5.57" rerouteNo="1" devices="tripinfo_veh0.4 routing_veh0.4 emissions_veh0.4" vType="veh_passenger" speedFactor="0.83" vaporized="">
        <emissions CO_abs="477.78" CO2_abs="121231.53" HC_abs="3.19" PMx_abs="12.49" NOx_abs="41.16" fuel_abs="39301.74" electricity_abs="0.00"/>
    </tripinfo>
    <personinfo id="ped1.2" depart="21.00" type="ped_pedestrian" speedFactor="1.18" duration="60.00" waitingTime="1.00" timeLoss="8.62" traveltime="60.00">
        <walk depart="21.00" departPos="0.00" arrival="81.00" arrivalPos="69.66" duration="60.00" routeLength="84.19" timeLoss="8.62" maxSpeed="1.64" waitingTime="1.00"/>
    </personinfo>
    <personinfo id="ped3" depart="61.00" type="ped_pedestrian" speedFactor="1.11" duration="28.00" waitingTime="0.00" timeLoss="2.86" traveltime="28.00">
        <walk depart="61.00" departPos="0.00" arrival="89.00" arrivalPos="19.36" duration="28.00" routeLength="38.90" timeLoss="2.86" maxSpeed="1.55" waitingTime="0.00"/>
    </personinfo>
    <personinfo id="ped1" depart="21.00" type="ped_pedestrian" speedFactor="1.02" duration="68.00" waitingTime="0.00" timeLoss="8.55" traveltime="68.00">
        <walk depart="21.00" departPos="0.00" arrival="89.00" arrivalPos="69.66" duration="68.00" routeLength="84.19" timeLoss="8.55" maxSpeed="1.42" waitingTime="0.00"/>
    </personinfo>
    <personinfo id="ped3.1" depart="61.00" type="ped_pedestrian" speedFactor="1.16" duration="29.00" waitingTime="0.00" timeLoss="4.95" traveltime="29.00">
        <walk depart="61.00" departPos="0.00" arrival="90.00" arrivalPos="19.36" duration="29.00" routeLength="38.90" timeLoss="4.95" maxSpeed="1.62" waitingTime="0.00"/>
    </personinfo>
    <personinfo id="ped1.1" depart="21.00" type="ped_pedestrian" speedFactor="0.97" duration="71.00" waitingTime="0.00" timeLoss="8.71" traveltime="71.00">
        <walk depart="21.00" departPos="0.00" arrival="92.00" arrivalPos="69.66" duration="71.00" routeLength="84.19" timeLoss="8.71" maxSpeed="1.35" waitingTime="0.00"/>
    </personinfo>
    <personinfo id="ped1.3" depart="21.00" type="ped_pedestrian" speedFactor="1.10" duration="72.00" waitingTime="2.00" timeLoss="17.01" traveltime="72.00">
        <walk depart="21.00" departPos="0.00" arrival="93.00" arrivalPos="69.66" duration="72.00" routeLength="84.19" timeLoss="17.01" maxSpeed="1.53" waitingTime="2.00"/>
    </personinfo>
    <personinfo id="ped3.3" depart="61.00" type="ped_pedestrian" speedFactor="1.13" duration="33.00" waitingTime="2.00" timeLoss="8.19" traveltime="33.00">
        <walk depart="61.00" departPos="0.00" arrival="94.00" arrivalPos="19.36" duration="33.00" routeLength="38.90" timeLoss="8.19" maxSpeed="1.57" waitingTime="2.00"/>
    </personinfo>
    <personinfo id="ped3.2" depart="61.00" type="ped_pedestrian" speedFactor="0.94" duration="35.00" waitingTime="1.00" timeLoss="5.09" traveltime="35.00">
        <walk depart="61.00" departPos="0.00" arrival="96.00" arrivalPos="19.36" duration="35.00" routeLength="38.90" timeLoss="5.09" maxSpeed="1.30" waitingTime="1.00"/>
    </personinfo>
    <personinfo id="ped1.4" depart="21.00" type="ped_pedestrian" speedFactor="0.90" duration="79.00" waitingTime="2.00" timeLoss="11.69" traveltime="79.00">
        <walk depart="21.00" departPos="0.00" arrival="100.00" arrivalPos="69.66" duration="79.00" routeLength="84.19" timeLoss="11.69" maxSpeed="1.25" waitingTime="2.00"/>
    </personinfo>
    <personinfo id="ped3.4" depart="61.00" type="ped_pedestrian" speedFactor="0.73" duration="44.00" waitingTime="2.00" timeLoss="5.82" traveltime="44.00">
        <walk depart="61.00" departPos="0.00" arrival="105.00" arrivalPos="19.36" duration="44.00" routeLength="38.90" timeLoss="5.82" maxSpeed="1.02" waitingTime="2.00"/>
    </personinfo>
    <tripinfo id="bike1" depart="29.00" departLane="-43140831#5_0" departPos="1.70" departSpeed="0.00" departDelay="0.90" arrival="117.00" arrivalLane="-43140831#1_0" arrivalPos="107.04" arrivalSpeed="4.33" duration="88.00" routeLength="371.54" waitingTime="0.00" waitingCount="0" stopTime="0.00" timeLoss="6.83" rerouteNo="1" devices="tripinfo_bike1 routing_bike1 emissions_bike1" vType="bike_bicycle" speedFactor="0.83" vaporized="">
        <emissions CO_abs="0.00" CO2_abs="0.00" HC_abs="0.00" PMx_abs="0.00" NOx_abs="0.00" fuel_abs="0.00" electricity_abs="0.00"/>
    </tripinfo>
    <tripinfo id="bike1.1" depart="31.00" departLane="-43140831#5_0" departPos="1.70" departSpeed="0.00" departDelay="2.90" arrival="118.00" arrivalLane="-43140831#1_0" arrivalPos="107.04" arrivalSpeed="5.39" duration="87.00" routeLength="371.54" waitingTime="0.00" waitingCount="0" stopTime="0.00" timeLoss="22.83" rerouteNo="1" devices="tripinfo_bike1.1 routing_bike1.1 emissions_bike1.1" vType="bike_bicycle" speedFactor="1.05" vaporized="">
        <emissions CO_abs="0.00" CO2_abs="0.00" HC_abs="0.00" PMx_abs="0.00" NOx_abs="0.00" fuel_abs="0.00" electricity_abs="0.00"/>
    </tripinfo>
    <tripinfo id="bike1.2" depart="34.00" departLane="-43140831#5_0" departPos="1.70" departSpeed="0.00" departDelay="5.90" arrival="120.00" arrivalLane="-43140831#1_0" arrivalPos="107.04" arrivalSpeed="4.60" duration="86.00" routeLength="371.54" waitingTime="0.00" waitingCount="0" stopTime="0.00" timeLoss="10.04" rerouteNo="1" devices="tripinfo_bike1.2 routing_bike1.2 emissions_bike1.2" vType="bike_bicycle" speedFactor="0.89" vaporized="">
        <emissions CO_abs="0.00" CO2_abs="0.00" HC_abs="0.00" PMx_abs="0.00" NOx_abs="0.00" fuel_abs="0.00" electricity_abs="0.00"/>
    </tripinfo>
    <tripinfo id="bike1.3" depart="36.00" departLane="-43140831#5_0" departPos="1.70" departSpeed="0.00" departDelay="7.90" arrival="121.00" arrivalLane="-43140831#1_0" arrivalPos="107.04" arrivalSpeed="4.97" duration="85.00" routeLength="371.54" waitingTime="0.00" waitingCount="0" stopTime="0.00" timeLoss="13.68" rerouteNo="1" devices="tripinfo_bike1.3 routing_bike1.3 emissions_bike1.3" vType="bike_bicycle" speedFactor="0.94" vaporized="">
        <emissions CO_abs="0.00" CO2_abs="0.00" HC_abs="0.00" PMx_abs="0.00" NOx_abs="0.00" fuel_abs="0.00" electricity_abs="0.00"/>
    </tripinfo>
    <tripinfo id="bike1.4" depart="39.00" departLane="-43140831#5_0" departPos="1.70" departSpeed="0.00" departDelay="10.90" arrival="125.00" arrivalLane="-43140831#1_0" arrivalPos="107.04" arrivalSpeed="4.62" duration="86.00" routeLength="371.54" waitingTime="0.00" waitingCount="0" stopTime="0.00" timeLoss="7.44" rerouteNo="1" devices="tripinfo_bike1.4 routing_bike1.4 emissions_bike1.4" vType="bike_bicycle" speedFactor="0.86" vaporized="">
        <emissions CO_abs="0.00" CO2_abs="0.00" HC_abs="0.00" PMx_abs="0.00" NOx_abs="0.00" fuel_abs="0.00" electricity_abs="0.00"/>
    </tripinfo>
    <personinfo id="ped2.1" depart="41.00" type="ped_pedestrian" speedFactor="1.12" duration="85.00" waitingTime="0.00" timeLoss="9.25" traveltime="85.00">
        <walk depart="41.00" departPos="0.00" arrival="126.00" arrivalPos="13.63" duration="85.00" routeLength="117.78" timeLoss="9.25" maxSpeed="1.55" waitingTime="0.00"/>
    </personinfo>
    <tripinfo id="bike0" depart="0.00" departLane="1193997329_0" departPos="1.70" departSpeed="0.00" departDelay="0.00" arrival="126.00" arrivalLane="-1062498629#2_0" arrivalPos="232.59" arrivalSpeed="5.86" duration="126.00" routeLength="681.44" waitingTime="0.00" waitingCount="0" stopTime="0.00" timeLoss="9.40" rerouteNo="1" devices="tripinfo_bike0 routing_bike0 emissions_bike0" vType="bike_bicycle" speedFactor="1.06" vaporized="">
        <emissions CO_abs="0.00" CO2_abs="0.00" HC_abs="0.00" PMx_abs="0.00" NOx_abs="0.00" fuel_abs="0.00" electricity_abs="0.00"/>
    </tripinfo>
    <personinfo id="ped2" depart="41.00" type="ped_pedestrian" speedFactor="1.01" duration="94.00" waitingTime="0.00" timeLoss="10.18" traveltime="94.00">
        <walk depart="41.00" departPos="0.00" arrival="135.00" arrivalPos="13.63" duration="94.00" routeLength="117.78" timeLoss="10.18" maxSpeed="1.41" waitingTime="0.00"/>
    </personinfo>
    <personinfo id="ped2.2" depart="41.00" type="ped_pedestrian" speedFactor="1.02" duration="95.00" waitingTime="0.00" timeLoss="11.47" traveltime="95.00">
        <walk depart="41.00" departPos="0.00" arrival="136.00" arrivalPos="13.63" duration="95.00" routeLength="117.78" timeLoss="11.47" maxSpeed="1.41" waitingTime="0.00"/>
    </personinfo>
    <personinfo id="ped2.3" depart="41.00" type="ped_pedestrian" speedFactor="1.00" duration="96.00" waitingTime="1.00" timeLoss="11.53" traveltime="96.00">
        <walk depart="41.00" departPos="0.00" arrival="137.00" arrivalPos="13.63" duration="96.00" routeLength="117.78" timeLoss="11.53" maxSpeed="1.39" waitingTime="1.00"/>
    </personinfo>
    <personinfo id="ped2.4" depart="41.00" type="ped_pedestrian" speedFactor="0.95" duration="101.00" waitingTime="1.00" timeLoss="12.06" traveltime="101.00">
        <walk depart="41.00" departPos="0.00" arrival="142.00" arrivalPos="13.63" duration="101.00" routeLength="117.78" timeLoss="12.06" maxSpeed="1.32" waitingTime="1.00"/>
    </personinfo>
    <tripinfo id="bike0.1" depart="3.00" departLane="1193997329_0" departPos="1.70" departSpeed="0.00" departDelay="3.00" arrival="146.00" arrivalLane="-1062498629#2_0" arrivalPos="232.59" arrivalSpeed="4.69" duration="143.00" routeLength="681.44" waitingTime="0.00" waitingCount="0" stopTime="0.00" timeLoss="11.63" rerouteNo="1" devices="tripinfo_bike0.1 routing_bike0.1 emissions_bike0.1" vType="bike_bicycle" speedFactor="0.94" vaporized="">
        <emissions CO_abs="0.00" CO2_abs="0.00" HC_abs="0.00" PMx_abs="0.00" NOx_abs="0.00" fuel_abs="0.00" electricity_abs="0.00"/>
    </tripinfo>
    <tripinfo id="veh4" depart="93.00" departLane="1284876490#0_0" departPos="5.10" departSpeed="0.00" departDelay="0.60" arrival="146.00" arrivalLane="952670885#2_0" arrivalPos="56.90" arrivalSpeed="14.68" duration="53.00" routeLength="600.78" waitingTime="0.00" waitingCount="0" stopTime="0.00" timeLoss="11.12" rerouteNo="1" devices="tripinfo_veh4 routing_veh4 emissions_veh4" vType="veh_passenger" speedFactor="1.06" vaporized="">
        <emissions CO_abs="1223.67" CO2_abs="186360.14" HC_abs="8.12" PMx_abs="14.85" NOx_abs="62.94" fuel_abs="60415.11" electricity_abs="0.00"/>
    </tripinfo>
    <tripinfo id="bike0.2" depart="5.00" departLane="1193997329_0" departPos="1.70" departSpeed="0.00" departDelay="5.00" arrival="147.00" arrivalLane="-1062498629#2_0" arrivalPos="232.59" arrivalSpeed="5.13" duration="142.00" routeLength="681.44" waitingTime="0.00" waitingCount="0" stopTime="0.00" timeLoss="20.39" rerouteNo="1" devices="tripinfo_bike0.2 routing_bike0.2 emissions_bike0.2" vType="bike_bicycle" speedFactor="1.01" vaporized="">
        <emissions CO_abs="0.00" CO2_abs="0.00" HC_abs="0.00" PMx_abs="0.00" NOx_abs="0.00" fuel_abs="0.00" electricity_abs="0.00"/>
    </tripinfo>
    <tripinfo id="bike0.3" depart="8.00" departLane="1193997329_0" departPos="1.70" departSpeed="0.00" departDelay="8.00" arrival="149.00" arrivalLane="-1062498629#2_0" arrivalPos="232.59" arrivalSpeed="5.80" duration="141.00" routeLength="681.44" waitingTime="0.00" waitingCount="0" stopTime="0.00" timeLoss="26.85" rerouteNo="1" devices="tripinfo_bike0.3 routing_bike0.3 emissions_bike0.3" vType="bike_bicycle" speedFactor="1.08" vaporized="">
        <emissions CO_abs="0.00" CO2_abs="0.00" HC_abs="0.00" PMx_abs="0.00" NOx_abs="0.00" fuel_abs="0.00" electricity_abs="0.00"/>
    </tripinfo>
    <tripinfo id="bike0.4" depart="10.00" departLane="1193997329_0" departPos="1.70" departSpeed="0.00" departDelay="10.00" arrival="150.00" arrivalLane="-1062498629#2_0" arrivalPos="232.59" arrivalSpeed="5.28" duration="140.00" routeLength="681.44" waitingTime="0.00" waitingCount="0" stopTime="0.00" timeLoss="20.67" rerouteNo="1" devices="tripinfo_bike0.4 routing_bike0.4 emissions_bike0.4" vType="bike_bicycle" speedFactor="1.03" vaporized="">
        <emissions CO_abs="0.00" CO2_abs="0.00" HC_abs="0.00" PMx_abs="0.00" NOx_abs="0.00" fuel_abs="0.00" electricity_abs="0.00"/>
    </tripinfo>
    <tripinfo id="veh4.1" depart="96.00" departLane="1284876490#0_0" departPos="5.10" departSpeed="0.00" departDelay="3.60" arrival="153.00" arrivalLane="952670885#2_0" arrivalPos="56.90" arrivalSpeed="13.03" duration="57.00" routeLength="600.78" waitingTime="0.00" waitingCount="0" stopTime="0.00" timeLoss="9.85" rerouteNo="1" devices="tripinfo_veh4.1 routing_veh4.1 emissions_veh4.1" vType="veh_passenger" speedFactor="0.96" vaporized="">
        <emissions CO_abs="905.77" CO2_abs="162714.54" HC_abs="6.02" PMx_abs="13.49" NOx_abs="54.01" fuel_abs="52749.65" electricity_abs="0.00"/>
    </tripinfo>
    <tripinfo id="veh4.2" depart="99.00" departLane="1284876490#0_0" departPos="5.10" departSpeed="0.00" departDelay="6.60" arrival="156.00" arrivalLane="952670885#2_0" arrivalPos="56.90" arrivalSpeed="12.44" duration="57.00" routeLength="600.78" waitingTime="0.00" waitingCount="0" stopTime="0.00" timeLoss="10.23" rerouteNo="1" devices="tripinfo_veh4.2 routing_veh4.2 emissions_veh4.2" vType="veh_passenger" speedFactor="0.97" vaporized="">
        <emissions CO_abs="978.42" CO2_abs="169788.07" HC_abs="6.49" PMx_abs="13.66" NOx_abs="56.39" fuel_abs="55042.75" electricity_abs="0.00"/>
    </tripinfo>
    <tripinfo id="veh4.3" depart="102.00" departLane="1284876490#0_0" departPos="5.10" departSpeed="0.00" departDelay="9.60" arrival="159.00" arrivalLane="952670885#2_0" arrivalPos="56.90" arrivalSpeed="12.91" duration="57.00" routeLength="600.78" waitingTime="0.00" waitingCount="0" stopTime="0.00" timeLoss="9.52" rerouteNo="1" devices="tripinfo_veh4.3 routing_veh4.3 emissions_veh4.3" vType="veh_passenger" speedFactor="0.95" vaporized="">
        <emissions CO_abs="982.25" CO2_abs="169314.60" HC_abs="6.52" PMx_abs="13.48" NOx_abs="56.44" fuel_abs="54889.26" electricity_abs="0.00"/>
    </tripinfo>
    <tripinfo id="veh4.4" depart="105.00" departLane="1284876490#0_0" departPos="5.10" departSpeed="0.00" departDelay="12.60" arrival="166.00" arrivalLane="952670885#2_0" arrivalPos="56.90" arrivalSpeed="11.19" duration="61.00" routeLength="600.78" waitingTime="0.00" waitingCount="0" stopTime="0.00" timeLoss="10.77" rerouteNo="1" devices="tripinfo_veh4.4 routing_veh4.4 emissions_veh4.4" vType="veh_passenger" speedFactor="0.89" vaporized="">
        <emissions CO_abs="826.92" CO2_abs="166298.51" HC_abs="5.49" PMx_abs="13.60" NOx_abs="54.71" fuel_abs="53911.55" electricity_abs="0.00"/>
    </tripinfo>
    <tripinfo id="motorcycle1" depart="70.00" departLane="-952052138#0_0" departPos="0.37" departSpeed="0.00" departDelay="0.70" arrival="178.00" arrivalLane="1062498629#1_0" arrivalPos="7.82" arrivalSpeed="8.67" duration="108.00" routeLength="725.68" waitingTime="0.00" waitingCount="0" stopTime="0.00" timeLoss="47.70" rerouteNo="1" devices="tripinfo_motorcycle1 routing_motorcycle1 emissions_motorcycle1" vType="motorcycle_motorcycle" speedFactor="0.93" vaporized="">
        <emissions CO_abs="2341.84" CO2_abs="146959.38" HC_abs="1627.66" PMx_abs="34.16" NOx_abs="159.48" fuel_abs="47652.18" electricity_abs="0.00"/>
    </tripinfo>
    <tripinfo id="motorcycle1.1" depart="71.00" departLane="-952052138#0_0" departPos="0.37" departSpeed="0.00" departDelay="1.70" arrival="185.00" arrivalLane="1062498629#1_0" arrivalPos="7.82" arrivalSpeed="10.97" duration="114.00" routeLength="725.68" waitingTime="0.00" waitingCount="0" stopTime="0.00" timeLoss="50.40" rerouteNo="1" devices="tripinfo_motorcycle1.1 routing_motorcycle1.1 emissions_motorcycle1.1" vType="motorcycle_motorcycle" speedFactor="0.88" vaporized="">
        <emissions CO_abs="2392.65" CO2_abs="168454.07" HC_abs="1898.89" PMx_abs="40.02" NOx_abs="174.48" fuel_abs="54622.05" electricity_abs="0.00"/>
    </tripinfo>
    <tripinfo id="motorcycle1.2" depart="73.00" departLane="-952052138#0_0" departPos="0.37" departSpeed="0.00" departDelay="3.70" arrival="188.00" arrivalLane="1062498629#1_0" arrivalPos="7.82" arrivalSpeed="12.40" duration="115.00" routeLength="725.68" waitingTime="0.00" waitingCount="0" stopTime="0.00" timeLoss="55.56" rerouteNo="1" devices="tripinfo_motorcycle1.2 routing_motorcycle1.2 emissions_motorcycle1.2" vType="motorcycle_motorcycle" speedFactor="0.94" vaporized="">
        <emissions CO_abs="3099.69" CO2_abs="201768.06" HC_abs="2135.59" PMx_abs="44.65" NOx_abs="222.60" fuel_abs="65423.80" electricity_abs="0.00"/>
    </tripinfo>
    <tripinfo id="motorcycle1.3" depart="75.00" departLane="-952052138#0_0" departPos="0.37" departSpeed="0.00" departDelay="5.70" arrival="191.00" arrivalLane="1062498629#1_0" arrivalPos="7.82" arrivalSpeed="8.36" duration="116.00" routeLength="725.68" waitingTime="1.00" waitingCount="1" stopTime="0.00" timeLoss="57.64" rerouteNo="1" devices="tripinfo_motorcycle1.3 routing_motorcycle1.3 emissions_motorcycle1.3" vType="motorcycle_motorcycle" speedFactor="0.94" vaporized="">
        <emissions CO_abs="2811.36" CO2_abs="190099.64" HC_abs="1988.55" PMx_abs="41.42" NOx_abs="208.57" fuel_abs="61640.20" electricity_abs="0.00"/>
    </tripinfo>
    <tripinfo id="motorcycle1.4" depart="77.00" departLane="-952052138#0_0" departPos="0.37" departSpeed="0.00" departDelay="7.70" arrival="194.00" arrivalLane="1062498629#1_0" arrivalPos="7.82" arrivalSpeed="7.90" duration="117.00" routeLength="725.68" waitingTime="0.00" waitingCount="0" stopTime="0.00" timeLoss="69.45" rerouteNo="1" devices="tripinfo_motorcycle1.4 routing_motorcycle1.4 emissions_motorcycle1.4" vType="motorcycle_motorcycle" speedFactor="1.16" vaporized="">
        <emissions CO_abs="3084.67" CO2_abs="194858.40" HC_abs="2133.85" PMx_abs="43.92" NOx_abs="215.18" fuel_abs="63183.39" electricity_abs="0.00"/>
    </tripinfo>
    <tripinfo id="motorcycle0" depart="0.00" departLane="-1150062812#1_0" departPos="2.30" departSpeed="3.03" departDelay="0.00" arrival="205.00" arrivalLane="-952670885#0_0" arrivalPos="0.20" arrivalSpeed="14.78" duration="205.00" routeLength="1221.95" waitingTime="0.00" waitingCount="0" stopTime="0.00" timeLoss="45.47" rerouteNo="1" devices="tripinfo_motorcycle0 routing_motorcycle0 emissions_motorcycle0" vType="motorcycle_motorcycle" speedFactor="1.09" vaporized="">
        <emissions CO_abs="5261.98" CO2_abs="251978.68" HC_abs="3090.11" PMx_abs="63.66" NOx_abs="276.17" fuel_abs="81705.76" electricity_abs="0.00"/>
    </tripinfo>
    <tripinfo id="motorcycle3" depart="208.00" departLane="1062498629#1_0" departPos="2.30" departSpeed="0.00" departDelay="0.10" arrival="210.00" arrivalLane="1062498629#1_0" arrivalPos="7.82" arrivalSpeed="10.92" duration="2.00" routeLength="5.52" waitingTime="0.00" waitingCount="0" stopTime="0.00" timeLoss="0.89" rerouteNo="1" devices="tripinfo_motorcycle3 routing_motorcycle3 emissions_motorcycle3" vType="motorcycle_motorcycle" speedFactor="1.03" vaporized="">
        <emissions CO_abs="231.07" CO2_abs="11831.31" HC_abs="99.05" PMx_abs="1.98" NOx_abs="16.01" fuel_abs="3836.24" electricity_abs="0.00"/>
    </tripinfo>
    <tripinfo id="motorcycle3.1" depart="215.00" departLane="1062498629#1_0" departPos="2.30" departSpeed="0.00" departDelay="7.10" arrival="218.00" arrivalLane="1062498629#1_0" arrivalPos="7.82" arrivalSpeed="7.88" duration="3.00" routeLength="5.52" waitingTime="0.00" waitingCount="0" stopTime="0.00" timeLoss="2.10" rerouteNo="1" devices="tripinfo_motorcycle3.1 routing_motorcycle3.1 emissions_motorcycle3.1" vType="motorcycle_motorcycle" speedFactor="1.00" vaporized="">
        <emissions CO_abs="83.17" CO2_abs="10461.31" HC_abs="96.74" PMx_abs="2.20" NOx_abs="8.82" fuel_abs="3392.10" electricity_abs="0.00"/>
    </tripinfo>
    <tripinfo id="motorcycle0.1" depart="3.00" departLane="-1150062812#1_0" departPos="2.30" departSpeed="1.20" departDelay="3.00" arrival="221.00" arrivalLane="-952670885#0_0" arrivalPos="0.20" arrivalSpeed="13.54" duration="218.00" routeLength="1221.95" waitingTime="0.00" waitingCount="0" stopTime="0.00" timeLoss="48.41" rerouteNo="1" devices="tripinfo_motorcycle0.1 routing_motorcycle0.1 emissions_motorcycle0.1" vType="motorcycle_motorcycle" speedFactor="1.03" vaporized="">
        <emissions CO_abs="4800.91" CO2_abs="265126.72" HC_abs="3314.47" PMx_abs="68.66" NOx_abs="273.26" fuel_abs="85969.35" electricity_abs="0.00"/>
    </tripinfo>
    <tripinfo id="veh2" depart="69.00" departLane="-1150062813_0" departPos="5.10" departSpeed="0.00" departDelay="22.80" arrival="221.00" arrivalLane="1062498629#3_0" arrivalPos="3.00" arrivalSpeed="13.45" duration="152.00" routeLength="872.46" waitingTime="0.00" waitingCount="0" stopTime="0.00" timeLoss="36.36" rerouteNo="1" devices="tripinfo_veh2 routing_veh2 emissions_veh2" vType="veh_passenger" speedFactor="1.02" vaporized="">
        <emissions CO_abs="1102.84" CO2_abs="288115.37" HC_abs="7.33" PMx_abs="18.24" NOx_abs="96.93" fuel_abs="93402.85" electricity_abs="0.00"/>
    </tripinfo>
    <tripinfo id="motorcycle3.2" depart="220.00" departLane="1062498629#1_0" departPos="2.30" departSpeed="0.00" departDelay="12.10" arrival="222.00" arrivalLane="1062498629#1_0" arrivalPos="7.82" arrivalSpeed="8.76" duration="2.00" routeLength="5.52" waitingTime="0.00" waitingCount="0" stopTime="0.00" timeLoss="1.10" rerouteNo="1" devices="tripinfo_motorcycle3.2 routing_motorcycle3.2 emissions_motorcycle3.2" vType="motorcycle_motorcycle" speedFactor="1.02" vaporized="">
        <emissions CO_abs="120.10" CO2_abs="9837.19" HC_abs="80.86" PMx_abs="1.78" NOx_abs="10.50" fuel_abs="3189.68" electricity_abs="0.00"/>
    </tripinfo>
    <tripinfo id="motorcycle3.3" depart="222.00" departLane="1062498629#1_0" departPos="2.30" departSpeed="0.00" departDelay="14.10" arrival="224.00" arrivalLane="1062498629#1_0" arrivalPos="7.82" arrivalSpeed="7.09" duration="2.00" routeLength="5.52" waitingTime="0.00" waitingCount="0" stopTime="0.00" timeLoss="1.20" rerouteNo="1" devices="tripinfo_motorcycle3.3 routing_motorcycle3.3 emissions_motorcycle3.3" vType="motorcycle_motorcycle" speedFactor="0.97" vaporized="">
        <emissions CO_abs="62.41" CO2_abs="8386.46" HC_abs="69.39" PMx_abs="1.63" NOx_abs="7.14" fuel_abs="2719.31" electricity_abs="0.00"/>
    </tripinfo>
    <personinfo id="ped0" depart="0.00" type="ped_pedestrian" speedFactor="1.18" duration="225.00" waitingTime="0.00" timeLoss="22.01" traveltime="225.00">
        <walk depart="0.00" departPos="0.00" arrival="225.00" arrivalPos="1.65" duration="225.00" routeLength="332.28" timeLoss="22.01" maxSpeed="1.64" waitingTime="0.00"/>
    </personinfo>
    <tripinfo id="motorcycle0.2" depart="7.00" departLane="-1150062812#1_0" departPos="2.30" departSpeed="2.50" departDelay="7.00" arrival="226.00" arrivalLane="-952670885#0_0" arrivalPos="0.20" arrivalSpeed="13.79" duration="219.00" routeLength="1221.95" waitingTime="0.00" waitingCount="0" stopTime="0.00" timeLoss="52.71" rerouteNo="1" devices="tripinfo_motorcycle0.2 routing_motorcycle0.2 emissions_motorcycle0.2" vType="motorcycle_motorcycle" speedFactor="1.05" vaporized="">
        <emissions CO_abs="4836.44" CO2_abs="262551.48" HC_abs="3285.92" PMx_abs="67.99" NOx_abs="271.52" fuel_abs="85134.30" electricity_abs="0.00"/>
    </tripinfo>
    <tripinfo id="motorcycle0.3" depart="10.00" departLane="-1150062812#1_0" departPos="2.30" departSpeed="0.98" departDelay="10.00" arrival="228.00" arrivalLane="-952670885#0_0" arrivalPos="0.20" arrivalSpeed="14.99" duration="218.00" routeLength="1221.95" waitingTime="0.00" waitingCount="0" stopTime="0.00" timeLoss="62.02" rerouteNo="1" devices="tripinfo_motorcycle0.3 routing_motorcycle0.3 emissions_motorcycle0.3" vType="motorcycle_motorcycle" speedFactor="1.12" vaporized="">
        <emissions CO_abs="5870.60" CO2_abs="280669.35" HC_abs="3351.04" PMx_abs="69.44" NOx_abs="304.82" fuel_abs="91008.71" electricity_abs="0.00"/>
    </tripinfo>
    <tripinfo id="motorcycle3.4" depart="227.00" departLane="1062498629#1_0" departPos="2.30" departSpeed="0.00" departDelay="19.10" arrival="230.00" arrivalLane="1062498629#1_0" arrivalPos="7.82" arrivalSpeed="7.61" duration="3.00" routeLength="5.52" waitingTime="0.00" waitingCount="0" stopTime="0.00" timeLoss="2.26" rerouteNo="1" devices="tripinfo_motorcycle3.4 routing_motorcycle3.4 emissions_motorcycle3.4" vType="motorcycle_motorcycle" speedFactor="1.15" vaporized="">
        <emissions CO_abs="75.81" CO2_abs="10224.16" HC_abs="95.17" PMx_abs="2.17" NOx_abs="8.35" fuel_abs="3315.20" electricity_abs="0.00"/>
    </tripinfo>
    <personinfo id="ped0.1" depart="0.00" type="ped_pedestrian" speedFactor="1.15" duration="233.00" waitingTime="0.00" timeLoss="25.75" traveltime="233.00">
        <walk depart="0.00" departPos="0.00" arrival="233.00" arrivalPos="1.65" duration="233.00" routeLength="332.28" timeLoss="25.75" maxSpeed="1.60" waitingTime="0.00"/>
    </personinfo>
    <tripinfo id="veh3" depart="70.00" departLane="-1062498629#6_0" departPos="5.10" departSpeed="0.00" departDelay="0.70" arrival="235.00" arrivalLane="-1150062811#0_0" arrivalPos="101.95" arrivalSpeed="2.70" duration="165.00" routeLength="1034.26" waitingTime="0.00" waitingCount="0" stopTime="0.00" timeLoss="35.00" rerouteNo="1" devices="tripinfo_veh3 routing_veh3 emissions_veh3" vType="veh_passenger" speedFactor="1.06" vaporized="">
        <emissions CO_abs="1435.12" CO2_abs="332702.94" HC_abs="9.54" PMx_abs="23.04" NOx_abs="111.77" fuel_abs="107857.49" electricity_abs="0.00"/>
    </tripinfo>