<?xml version="1.0" encoding="UTF-8"?>

<!-- generated on 2026-01-26T09:08:38.410221+07:00 by Eclipse SUMO sumo v1_25_0+0904-59bbc76848e
<sumoConfiguration xmlns:xsi="http://www.w3.org/2001/XMLSchema-instance" xsi:noNamespaceSchemaLocation="http://sumo.dlr.de/xsd/sumoConfiguration.xsd">

    <input>
        <net-file value="maps/NinhKieuBridge/osm.net.xml.gz"/>
        <route-files value="maps/NinhKieuBridge/osm_pt.rou.xml,maps/NinhKieuBridge/osm.bicycle.trips.xml,maps/NinhKieuBridge/osm.motorcycle.trips.xml,maps/NinhKieuBridge/osm.passenger.trips.xml,maps/NinhKieuBridge/osm.pedestrian.rou.xml"/>
        <additional-files value="maps/NinhKieuBridge/osm.poly.xml.gz,maps/NinhKieuBridge/osm_stops.add.xml,maps/NinhKieuBridge/output.add.xml"/>
    </input>

    <output>
        <tripinfo-output value="maps/NinhKieuBridge/tripinfos.xml"/>
        <stop-output value="maps/NinhKieuBridge/stopinfos.xml"/>
        <statistic-output value="maps/NinhKieuBridge/stats.xml"/>
    </output>

    <processing>
        <ignore-route-errors value="true"/>
        <scale value="5.0"/>
        <tls.actuated.jam-threshold value="30"/>
    </processing>

    <routing>
        <device.rerouting.adaptation-steps value="18"/>
        <device.rerouting.adaptation-interval value="10"/>
    </routing>

    <report>
        <verbose value="true"/>
        <no-warnings value="true"/>
        <no-step-log value="true"/>
    </report>

    <emissions>
        <device.emissions.probability value="1.0"/>
    </emissions>

    <traci_server>
        <remote-port value="46227"/>
    </traci_server>

    <gui_only>
        <gui-settings-file value="maps/NinhKieuBridge/osm.view.xml"/>
        <quit-on-end value="true"/>
        <start value="true"/>
        <delay value="0"/>
    </gui_only>

</sumoConfiguration>
-->

<tripinfos xmlns:xsi="http://www.w3.org/2001/XMLSchema-instance" xsi:noNamespaceSchemaLocation="http://sumo.dlr.de/xsd/tripinfo_file.xsd">
    <tripinfo id="veh0" depart="0.00" departLane="-166333704#0_0" departPos="5.10" departSpeed="0.00" departDelay="0.00" arrival="49.00" arrivalLane="-1062498629#0_0" arrivalPos="325.06" arrivalSpeed="13.32" duration="49.00" routeLength="621.58" waitingTime="0.00" waitingCount="0" stopTime="0.00" timeLoss="4.59" rerouteNo="1" devices="tripinfo_veh0 routing_veh0 emissions_veh0" vType="veh_passenger" speedFactor="1.02" vaporized="">
        <emissions CO_abs="711.16" CO2_abs="124838.46" HC_abs="4.77" PMx_abs="14.13" NOx_abs="43.18" fuel_abs="40470.96" electricity_abs="0.00"/>
    </tripinfo>
    <tripinfo id="veh0.1" depart="3.00" departLane="-166333704#0_0" departPos="5.10" departSpeed="0.00" departDelay="3.00" arrival="53.00" arrivalLane="-1062498629#0_0" arrivalPos="325.06" arrivalSpeed="12.87" duration="50.00" routeLength="621.58" waitingTime="0.00" waitingCount="0" stopTime="0.00" timeLoss="4.41" rerouteNo="1" devices="tripinfo_veh0.1 routing_veh0.1 emissions_veh0.1" vType="veh_passenger" speedFactor="1.01" vaporized="">
        <emissions CO_abs="665.80" CO2_abs="122247.76" HC_abs="4.46" PMx_abs="14.36" NOx_abs="42.27" fuel_abs="39631.13" electricity_abs="0.00"/>
    </tripinfo>
    <tripinfo id="veh0.2" depart="6.00" departLane="-166333704#0_0" departPos="5.10" departSpeed="0.00" departDelay="6.00" arrival="58.00" arrivalLane="-1062498629#0_0" arrivalPos="325.06" arrivalSpeed="12.69" duration="52.00" routeLength="621.58" waitingTime="0.00" waitingCount="0" stopTime="0.00" timeLoss="5.08" rerouteNo="1" devices="tripinfo_veh0.2 routing_veh0.2 emissions_veh0.2" vType="veh_passenger" speedFactor="0.97" vaporized="">
        <emissions CO_abs="700.85" CO2_abs="121402.96" HC_abs="4.67" PMx_abs="11.97" NOx_abs="41.57" fuel_abs="39357.14" electricity_abs="0.00"/>
    </tripinfo>
    <tripinfo id="veh0.3" depart="9.00" departLane="-166333704#0_0" departPos="5.10" departSpeed="0.00" departDelay="9.00" arrival="65.00" arrivalLane="-1062498629#0_0" arrivalPos="325.06" arrivalSpeed="12.03" duration="56.00" routeLength="621.58" waitingTime="0.00" waitingCount="0" stopTime="0.00" timeLoss="4.85" rerouteNo="1" devices="tripinfo_veh0.3 routing_veh0.3 emissions_veh0.3" vType="veh_passenger" speedFactor="0.89" vaporized="">
        <emissions CO_abs="613.49" CO2_abs="125090.00" HC_abs="4.09" PMx_abs="12.79" NOx_abs="42.49" fuel_abs="40552.51" electricity_abs="0.00"/>
    </tripinfo>
    <tripinfo id="my_ego_car" depart="30.00" departLane="952670885#2_0" departPos="0.00" departSpeed="0.00" departDelay="0.00" arrival="71.00" arrivalLane="1150062812#0_0" arrivalPos="200.67" arrivalSpeed="55.60" duration="41.00" routeLength="1285.24" waitingTime="0.00" waitingCount="0" stopTime="0.00" timeLoss="-219.26" rerouteNo="0" devices="tripinfo_my_ego_car emissions_my_ego_car battery_my_ego_car" vType="custom_passenger_car" speedFactor="0.93" vaporized="">
        <emissions CO_abs="0.00" CO2_abs="0.00" HC_abs="0.00" PMx_abs="0.00" NOx_abs="0.00" fuel_abs="0.00" electricity_abs="nan"/>
        <battery depleted="0" actualBatteryCapacity="nan" totalEnergyConsumed="262.57" totalEnergyRegenerated="nan"/>
    </tripinfo>
</tripinfos>
