<?xml version="1.0" encoding="UTF-8"?>

<!-- generated on 2026-01-17T13:59:24.197265+07:00 by Eclipse SUMO GUI v1_25_0+0904-59bbc76848e
<sumoConfiguration xmlns:xsi="http://www.w3.org/2001/XMLSchema-instance" xsi:noNamespaceSchemaLocation="http://sumo.dlr.de/xsd/sumoConfiguration.xsd">

    <input>
        <net-file value="maps/TestMap/osm.net.xml.gz"/>
        <route-files value="maps/TestMap/osm_pt.rou.xml,maps/TestMap/osm.bicycle.trips.xml,maps/TestMap/osm.motorcycle.trips.xml,maps/TestMap/osm.passenger.trips.xml,maps/TestMap/osm.pedestrian.rou.xml"/>
        <additional-files value="maps/TestMap/osm.poly.xml.gz,maps/TestMap/osm_stops.add.xml,maps/TestMap/output.add.xml"/>
    </input>

    <output>
        <tripinfo-output value="maps/TestMap/tripinfos.xml"/>
        <stop-output value="maps/TestMap/stopinfos.xml"/>
        <statistic-output value="maps/TestMap/stats.xml"/>
    </output>

    <processing>
        <ignore-route-errors value="true"/>
        <scale value="5.0"/>
        <tls.actuated.jam-threshold value="30"/>
    </processing>

    <routing>
        <device.rerouting.adaptation-steps value="18"/>
        <device.rerouting.adaptation-interval value="10"/>
    </routing>

    <report>
        <verbose value="true"/>
        <no-warnings value="true"/>
        <no-step-log value="true"/>
    </report>

    <emissions>
        <device.emissions.probability value="1.0"/>
    </emissions>

    <traci_server>
        <remote-port value="44745"/>
    </traci_server>

    <gui_only>
        <gui-settings-file value="maps/TestMap/osm.view.xml"/>
        <quit-on-end value="true"/>
        <start value="true"/>
    </gui_only>

</sumoConfiguration>
-->

<tripinfos xmlns:xsi="http://www.w3.org/2001/XMLSchema-instance" xsi:noNamespaceSchemaLocation="http://sumo.dlr.de/xsd/tripinfo_file.xsd">
    <tripinfo id="veh0" depart="0.00" departLane="-166333704#0_0" departPos="5.10" departSpeed="0.00" departDelay="0.00" arrival="49.00" arrivalLane="-1062498629#0_0" arrivalPos="325.06" arrivalSpeed="14.05" duration="49.00" routeLength="621.58" waitingTime="0.00" waitingCount="0" stopTime="0.00" timeLoss="4.54" rerouteNo="1" devices="tripinfo_veh0 routing_veh0 emissions_veh0" vType="veh_passenger" speedFactor="1.02" vaporized="">
        <emissions CO_abs="738.62" CO2_abs="127266.66" HC_abs="4.95" PMx_abs="14.20" NOx_abs="44.04" fuel_abs="41258.14" electricity_abs="0.00"/>
    </tripinfo>
    <tripinfo id="veh0.1" depart="3.00" departLane="-166333704#0_0" departPos="5.10" departSpeed="0.00" departDelay="3.00" arrival="53.00" arrivalLane="-1062498629#0_0" arrivalPos="325.06" arrivalSpeed="12.90" duration="50.00" routeLength="621.58" waitingTime="0.00" waitingCount="0" stopTime="0.00" timeLoss="4.40" rerouteNo="1" devices="tripinfo_veh0.1 routing_veh0.1 emissions_veh0.1" vType="veh_passenger" speedFactor="1.01" vaporized="">
        <emissions CO_abs="681.85" CO2_abs="122390.82" HC_abs="4.57" PMx_abs="14.04" NOx_abs="42.28" fuel_abs="39677.48" electricity_abs="0.00"/>
    </tripinfo>
    <tripinfo id="veh0.2" depart="6.00" departLane="-166333704#0_0" departPos="5.10" departSpeed="0.00" departDelay="6.00" arrival="58.00" arrivalLane="-1062498629#0_0" arrivalPos="325.06" arrivalSpeed="12.91" duration="52.00" routeLength="621.58" waitingTime="0.00" waitingCount="0" stopTime="0.00" timeLoss="4.94" rerouteNo="1" devices="tripinfo_veh0.2 routing_veh0.2 emissions_veh0.2" vType="veh_passenger" speedFactor="0.97" vaporized="">
        <emissions CO_abs="696.91" CO2_abs="122311.08" HC_abs="4.65" PMx_abs="12.36" NOx_abs="41.94" fuel_abs="39651.56" electricity_abs="0.00"/>
    </tripinfo>
    <tripinfo id="veh0.3" depart="9.00" departLane="-166333704#0_0" departPos="5.10" departSpeed="0.00" departDelay="9.00" arrival="65.00" arrivalLane="-1062498629#0_0" arrivalPos="325.06" arrivalSpeed="12.03" duration="56.00" routeLength="621.58" waitingTime="0.00" waitingCount="0" stopTime="0.00" timeLoss="4.76" rerouteNo="1" devices="tripinfo_veh0.3 routing_veh0.3 emissions_veh0.3" vType="veh_passenger" speedFactor="0.89" vaporized="">
        <emissions CO_abs="625.57" CO2_abs="126193.07" HC_abs="4.17" PMx_abs="12.83" NOx_abs="42.87" fuel_abs="40910.10" electricity_abs="0.00"/>
    </tripinfo>
    <tripinfo id="veh0.4" depart="12.00" departLane="-166333704#0_0" departPos="5.10" departSpeed="0.00" departDelay="12.00" arrival="73.00" arrivalLane="-1062498629#0_0" arrivalPos="325.06" arrivalSpeed="10.63" duration="61.00" routeLength="621.58" waitingTime="0.00" waitingCount="0" stopTime="0.00" timeLoss="5.55" rerouteNo="1" devices="tripinfo_veh0.4 routing_veh0.4 emissions_veh0.4" vType="veh_passenger" speedFactor="0.83" vaporized="">
        <emissions CO_abs="454.21" CO2_abs="115877.93" HC_abs="3.04" PMx_abs="11.87" NOx_abs="39.25" fuel_abs="37566.16" electricity_abs="0.00"/>
    </tripinfo>
    <personinfo id="ped1.2" depart="21.00" type="ped_pedestrian" speedFactor="1.18" duration="59.00" waitingTime="1.00" timeLoss="7.62" traveltime="59.00">
        <walk depart="21.00" departPos="0.00" arrival="80.00" arrivalPos="69.66" duration="59.00" routeLength="84.19" timeLoss="7.62" maxSpeed="1.64" waitingTime="1.00"/>
    </personinfo>
    <personinfo id="ped3" depart="61.00" type="ped_pedestrian" speedFactor="1.16" duration="27.00" waitingTime="0.00" timeLoss="2.95" traveltime="27.00">
        <walk depart="61.00" departPos="0.00" arrival="88.00" arrivalPos="19.36" duration="27.00" routeLength="38.90" timeLoss="2.95" maxSpeed="1.62" waitingTime="0.00"/>
    </personinfo>
    <personinfo id="ped1" depart="21.00" type="ped_pedestrian" speedFactor="1.02" duration="67.00" waitingTime="0.00" timeLoss="7.55" traveltime="67.00">
        <walk depart="21.00" departPos="0.00" arrival="88.00" arrivalPos="69.66" duration="67.00" routeLength="84.19" timeLoss="7.55" maxSpeed="1.42" waitingTime="0.00"/>
    </personinfo>
    <personinfo id="ped1.1" depart="21.00" type="ped_pedestrian" speedFactor="0.97" duration="71.00" waitingTime="0.00" timeLoss="8.71" traveltime="71.00">
        <walk depart="21.00" departPos="0.00" arrival="92.00" arrivalPos="69.66" duration="71.00" routeLength="84.19" timeLoss="8.71" maxSpeed="1.35" waitingTime="0.00"/>
    </personinfo>
    <personinfo id="ped1.3" depart="21.00" type="ped_pedestrian" speedFactor="1.10" duration="72.00" waitingTime="2.00" timeLoss="17.01" traveltime="72.00">
        <walk depart="21.00" departPos="0.00" arrival="93.00" arrivalPos="69.66" duration="72.00" routeLength="84.19" timeLoss="17.01" maxSpeed="1.53" waitingTime="2.00"/>
    </personinfo>
    <personinfo id="ped3.4" depart="61.00" type="ped_pedestrian" speedFactor="1.14" duration="34.00" waitingTime="3.00" timeLoss="9.45" traveltime="34.00">
        <walk depart="61.00" departPos="0.00" arrival="95.00" arrivalPos="19.36" duration="34.00" routeLength="38.90" timeLoss="9.45" maxSpeed="1.58" waitingTime="3.00"/>
    </personinfo>
    <personinfo id="ped3.2" depart="61.00" type="ped_pedestrian" speedFactor="1.13" duration="34.00" waitingTime="2.00" timeLoss="9.19" traveltime="34.00">
        <walk depart="61.00" departPos="0.00" arrival="95.00" arrivalPos="19.36" duration="34.00" routeLength="38.90" timeLoss="9.19" maxSpeed="1.57" waitingTime="2.00"/>
    </personinfo>
    <personinfo id="ped3.1" depart="61.00" type="ped_pedestrian" speedFactor="0.94" duration="37.00" waitingTime="2.00" timeLoss="7.09" traveltime="37.00">
        <walk depart="61.00" departPos="0.00" arrival="98.00" arrivalPos="19.36" duration="37.00" routeLength="38.90" timeLoss="7.09" maxSpeed="1.30" waitingTime="2.00"/>
    </personinfo>
    <personinfo id="ped1.4" depart="21.00" type="ped_pedestrian" speedFactor="0.90" duration="78.00" waitingTime="2.00" timeLoss="10.69" traveltime="78.00">
        <walk depart="21.00" departPos="0.00" arrival="99.00" arrivalPos="69.66" duration="78.00" routeLength="84.19" timeLoss="10.69" maxSpeed="1.25" waitingTime="2.00"/>
    </personinfo>
    <personinfo id="ped3.3" depart="61.00" type="ped_pedestrian" speedFactor="0.73" duration="46.00" waitingTime="3.00" timeLoss="7.82" traveltime="46.00">
        <walk depart="61.00" departPos="0.00" arrival="107.00" arrivalPos="19.36" duration="46.00" routeLength="38.90" timeLoss="7.82" maxSpeed="1.02" waitingTime="3.00"/>
    </personinfo>
    <tripinfo id="bike1" depart="29.00" departLane="-43140831#5_0" departPos="1.70" departSpeed="0.00" departDelay="0.90" arrival="118.00" arrivalLane="-43140831#1_0" arrivalPos="107.04" arrivalSpeed="4.20" duration="89.00" routeLength="371.54" waitingTime="0.00" waitingCount="0" stopTime="0.00" timeLoss="7.68" rerouteNo="1" devices="tripinfo_bike1 routing_bike1 emissions_bike1" vType="bike_bicycle" speedFactor="0.83" vaporized="">
        <emissions CO_abs="0.00" CO2_abs="0.00" HC_abs="0.00" PMx_abs="0.00" NOx_abs="0.00" fuel_abs="0.00" electricity_abs="0.00"/>
    </tripinfo>
    <tripinfo id="bike1.1" depart="31.00" departLane="-43140831#5_0" departPos="1.70" departSpeed="0.00" departDelay="2.90" arrival="119.00" arrivalLane="-43140831#1_0" arrivalPos="107.04" arrivalSpeed="5.47" duration="88.00" routeLength="371.54" waitingTime="0.00" waitingCount="0" stopTime="0.00" timeLoss="23.58" rerouteNo="1" devices="tripinfo_bike1.1 routing_bike1.1 emissions_bike1.1" vType="bike_bicycle" speedFactor="1.05" vaporized="">
        <emissions CO_abs="0.00" CO2_abs="0.00" HC_abs="0.00" PMx_abs="0.00" NOx_abs="0.00" fuel_abs="0.00" electricity_abs="0.00"/>
    </tripinfo>
    <tripinfo id="bike1.2" depart="34.00" departLane="-43140831#5_0" departPos="1.70" departSpeed="0.00" departDelay="5.90" arrival="121.00" arrivalLane="-43140831#1_0" arrivalPos="107.04" arrivalSpeed="4.70" duration="87.00" routeLength="371.54" waitingTime="0.00" waitingCount="0" stopTime="0.00" timeLoss="10.78" rerouteNo="1" devices="tripinfo_bike1.2 routing_bike1.2 emissions_bike1.2" vType="bike_bicycle" speedFactor="0.89" vaporized="">
        <emissions CO_abs="0.00" CO2_abs="0.00" HC_abs="0.00" PMx_abs="0.00" NOx_abs="0.00" fuel_abs="0.00" electricity_abs="0.00"/>
    </tripinfo>
    <tripinfo id="bike1.3" depart="36.00" departLane="-43140831#5_0" departPos="1.70" departSpeed="0.00" departDelay="7.90" arrival="122.00" arrivalLane="-43140831#1_0" arrivalPos="107.04" arrivalSpeed="4.79" duration="86.00" routeLength="371.54" waitingTime="0.00" waitingCount="0" stopTime="0.00" timeLoss="14.51" rerouteNo="1" devices="tripinfo_bike1.3 routing_bike1.3 emissions_bike1.3" vType="bike_bicycle" speedFactor="0.94" vaporized="">
        <emissions CO_abs="0.00" CO2_abs="0.00" HC_abs="0.00" PMx_abs="0.00" NOx_abs="0.00" fuel_abs="0.00" electricity_abs="0.00"/>
    </tripinfo>
    <personinfo id="ped2" depart="41.00" type="ped_pedestrian" speedFactor="1.12" duration="84.00" waitingTime="0.00" timeLoss="8.25" traveltime="84.00">
        <walk depart="41.00" departPos="0.00" arrival="125.00" arrivalPos="13.63" duration="84.00" routeLength="117.78" timeLoss="8.25" maxSpeed="1.55" waitingTime="0.00"/>
    </personinfo>
    <tripinfo id="bike1.4" depart="39.00" departLane="-43140831#5_0" departPos="1.70" departSpeed="0.00" departDelay="10.90" arrival="125.00" arrivalLane="-43140831#1_0" arrivalPos="107.04" arrivalSpeed="4.31" duration="86.00" routeLength="371.54" waitingTime="0.00" waitingCount="0" stopTime="0.00" timeLoss="7.71" rerouteNo="1" devices="tripinfo_bike1.4 routing_bike1.4 emissions_bike1.4" vType="bike_bicycle" speedFactor="0.86" vaporized="">
        <emissions CO_abs="0.00" CO2_abs="0.00" HC_abs="0.00" PMx_abs="0.00" NOx_abs="0.00" fuel_abs="0.00" electricity_abs="0.00"/>
    </tripinfo>
    <tripinfo id="bike0" depart="0.00" departLane="1193997329_0" departPos="1.70" departSpeed="0.00" departDelay="0.00" arrival="126.00" arrivalLane="-1062498629#2_0" arrivalPos="232.59" arrivalSpeed="5.54" duration="126.00" routeLength="681.44" waitingTime="0.00" waitingCount="0" stopTime="0.00" timeLoss="9.46" rerouteNo="1" devices="tripinfo_bike0 routing_bike0 emissions_bike0" vType="bike_bicycle" speedFactor="1.06" vaporized="">
        <emissions CO_abs="0.00" CO2_abs="0.00" HC_abs="0.00" PMx_abs="0.00" NOx_abs="0.00" fuel_abs="0.00" electricity_abs="0.00"/>
    </tripinfo>
    <personinfo id="ped2.1" depart="41.00" type="ped_pedestrian" speedFactor="1.02" duration="93.00" waitingTime="0.00" timeLoss="9.47" traveltime="93.00">
        <walk depart="41.00" departPos="0.00" arrival="134.00" arrivalPos="13.63" duration="93.00" routeLength="117.78" timeLoss="9.47" maxSpeed="1.41" waitingTime="0.00"/>
    </personinfo>
    <personinfo id="ped2.4" depart="41.00" type="ped_pedestrian" speedFactor="1.11" duration="94.00" waitingTime="1.00" timeLoss="17.86" traveltime="94.00">
        <walk depart="41.00" departPos="0.00" arrival="135.00" arrivalPos="13.63" duration="94.00" routeLength="117.78" timeLoss="17.86" maxSpeed="1.55" waitingTime="1.00"/>
    </personinfo>
    <personinfo id="ped2.2" depart="41.00" type="ped_pedestrian" speedFactor="1.00" duration="95.00" waitingTime="0.00" timeLoss="10.53" traveltime="95.00">
        <walk depart="41.00" departPos="0.00" arrival="136.00" arrivalPos="13.63" duration="95.00" routeLength="117.78" timeLoss="10.53" maxSpeed="1.39" waitingTime="0.00"/>
    </personinfo>
    <tripinfo id="my_ego_car" depart="1.00" departLane="1284876492#1_0" departPos="0.00" departSpeed="0.00" departDelay="0.00" arrival="136.00" arrivalLane="-1150062811#1_0" arrivalPos="116.00" arrivalSpeed="14.00" duration="135.00" routeLength="1088.65" waitingTime="0.00" waitingCount="0" stopTime="0.00" timeLoss="-0.20" rerouteNo="0" devices="tripinfo_my_ego_car emissions_my_ego_car battery_my_ego_car" vType="custom_passenger_car" speedFactor="1.06" vaporized="teleport">
        <emissions CO_abs="8224.07" CO2_abs="326537.00" HC_abs="44.52" PMx_abs="4.15" NOx_abs="123.22" fuel_abs="104154.13" electricity_abs="0.00"/>
        <battery depleted="0" actualBatteryCapacity="6800.00" totalEnergyConsumed="0.00" totalEnergyRegenerated="0.00"/>
    </tripinfo>
</tripinfos>
