<?xml version="1.0" encoding="UTF-8"?>

<!-- generated on 2026-02-07T00:47:19.007806+07:00 by Eclipse SUMO sumo v1_25_0+0904-59bbc76848e
<sumoConfiguration xmlns:xsi="http://www.w3.org/2001/XMLSchema-instance" xsi:noNamespaceSchemaLocation="http://sumo.dlr.de/xsd/sumoConfiguration.xsd">

    <input>
        <net-file value="maps/CTU_map/osm.net.xml.gz"/>
        <route-files value="maps/CTU_map/osm.bicycle.trips.xml,maps/CTU_map/osm.motorcycle.trips.xml,maps/CTU_map/osm.passenger.trips.xml,maps/CTU_map/osm.pedestrian.rou.xml"/>
        <additional-files value="maps/CTU_map/osm.poly.xml.gz,maps/CTU_map/output.add.xml"/>
    </input>

    <output>
        <tripinfo-output value="maps/CTU_map/tripinfos.xml"/>
        <statistic-output value="maps/CTU_map/stats.xml"/>
    </output>

    <processing>
        <ignore-route-errors value="true"/>
        <scale value="7.0"/>
        <tls.actuated.jam-threshold value="30"/>
    </processing>

    <routing>
        <device.rerouting.adaptation-steps value="18"/>
        <device.rerouting.adaptation-interval value="10"/>
    </routing>

    <report>
        <verbose value="true"/>
        <no-warnings value="true"/>
        <no-step-log value="true"/>
    </report>

    <emissions>
        <device.emissions.probability value="1.0"/>
    </emissions>

    <traci_server>
        <remote-port value="46331"/>
    </traci_server>

    <gui_only>
        <gui-settings-file value="maps/CTU_map/osm.view.xml"/>
        <quit-on-end value="true"/>
        <start value="true"/>
        <delay value="20"/>
    </gui_only>

</sumoConfiguration>
-->

<meandata xmlns:xsi="http://www.w3.org/2001/XMLSchema-instance" xsi:noNamespaceSchemaLocation="http://sumo.dlr.de/xsd/meandata_file.xsd">
    <interval begin="0.00" end="267.00" id="wizard_example">
        <edge id="-1006436797#0" sampledSeconds="72.20" traveltime="10.45" overlapTraveltime="10.77" density="6.75" overlapDensity="6.97" laneDensity="6.75" occupancy="1.10" waitingTime="1.00" timeLoss="22.33" speed="3.75" speedRelative="0.68" departed="7" arrived="0" entered="0" left="7" laneChangedFrom="0" laneChangedTo="0" flow="90.25"/>
        <edge id="-1006436797#1" sampledSeconds="0.00" departed="0" arrived="0" entered="0" left="0" laneChangedFrom="0" laneChangedTo="0"/>
        <edge id="-1006436797#2" sampledSeconds="0.00" departed="0" arrived="0" entered="0" left="0" laneChangedFrom="0" laneChangedTo="0"/>
        <edge id="-1006436797#3" sampledSeconds="0.00" departed="0" arrived="0" entered="0" left="0" laneChangedFrom="0" laneChangedTo="0"/>
        <edge id="-1006436797#4" sampledSeconds="0.00" departed="0" arrived="0" entered="0" left="0" laneChangedFrom="0" laneChangedTo="0"/>
        <edge id="-1006436798" sampledSeconds="74.04" traveltime="10.22" overlapTraveltime="10.58" density="5.43" overlapDensity="5.61" laneDensity="5.43" occupancy="0.87" waitingTime="0.00" timeLoss="7.96" speed="4.82" speedRelative="0.87" departed="0" arrived="0" entered="7" left="7" laneChangedFrom="0" laneChangedTo="0" flow="94.38"/>
        <edge id="-1006436799#0" sampledSeconds="0.00" departed="0" arrived="0" entered="0" left="0" laneChangedFrom="0" laneChangedTo="0"/>
        <edge id="-1006436799#1" sampledSeconds="0.00" departed="0" arrived="0" entered="0" left="0" laneChangedFrom="0" laneChangedTo="0"/>
        <edge id="-1006436802#0" sampledSeconds="0.00" departed="0" arrived="0" entered="0" left="0" laneChangedFrom="0" laneChangedTo="0"/>
        <edge id="-1006436802#1" sampledSeconds="0.00" departed="0" arrived="0" entered="0" left="0" laneChangedFrom="0" laneChangedTo="0"/>
        <edge id="-1006436820" sampledSeconds="0.00" departed="0" arrived="0" entered="0" left="0" laneChangedFrom="0" laneChangedTo="0"/>
        <edge id="-1049200866" sampledSeconds="423.35" traveltime="21.30" overlapTraveltime="22.74" density="40.63" overlapDensity="42.17" laneDensity="40.63" occupancy="18.08" waitingTime="198.00" timeLoss="355.62" speed="1.84" speedRelative="0.13" departed="21" arrived="0" entered="0" left="20" laneChangedFrom="0" laneChangedTo="0" flow="258.21"/>
        <edge id="-1050341200" sampledSeconds="0.00" departed="0" arrived="0" entered="0" left="0" laneChangedFrom="0" laneChangedTo="0"/>
        <edge id="-1060989491" sampledSeconds="0.00" departed="0" arrived="0" entered="0" left="0" laneChangedFrom="0" laneChangedTo="0"/>
        <edge id="-1060989493#0" sampledSeconds="162.91" traveltime="7.37" overlapTraveltime="7.76" density="15.58" overlapDensity="16.40" laneDensity="15.58" occupancy="2.51" waitingTime="0.00" timeLoss="17.10" speed="5.00" speedRelative="0.90" departed="0" arrived="0" entered="21" left="21" laneChangedFrom="0" laneChangedTo="0" flow="283.15"/>
        <edge id="-1060989493#1" sampledSeconds="159.98" traveltime="7.32" overlapTraveltime="7.62" density="15.01" overlapDensity="15.64" laneDensity="15.01" occupancy="2.40" waitingTime="0.00" timeLoss="12.40" speed="5.24" speedRelative="0.94" departed="0" arrived="0" entered="21" left="21" laneChangedFrom="0" laneChangedTo="0" flow="283.15"/>
        <edge id="-1060989493#2" sampledSeconds="121.59" traveltime="5.32" overlapTraveltime="5.79" density="20.53" overlapDensity="22.36" laneDensity="20.53" occupancy="3.33" waitingTime="14.00" timeLoss="40.09" speed="3.79" speedRelative="0.68" departed="0" arrived="0" entered="21" left="21" laneChangedFrom="0" laneChangedTo="0" flow="283.15"/>
        <edge id="-1060989493#3" sampledSeconds="66.70" traveltime="2.63" overlapTraveltime="3.18" density="16.88" overlapDensity="20.36" laneDensity="16.88" occupancy="2.76" waitingTime="1.00" timeLoss="15.54" speed="4.37" speedRelative="0.79" departed="0" arrived="0" entered="21" left="21" laneChangedFrom="0" laneChangedTo="0" flow="283.15"/>
        <edge id="-1060989493#4" sampledSeconds="204.77" traveltime="8.90" overlapTraveltime="9.75" density="18.13" overlapDensity="19.86" laneDensity="18.13" occupancy="3.01" waitingTime="4.00" timeLoss="56.45" speed="4.12" speedRelative="0.74" departed="0" arrived="0" entered="21" left="21" laneChangedFrom="0" laneChangedTo="0" flow="283.15"/>
        <edge id="-1060989493#5" sampledSeconds="61.24" traveltime="1.85" overlapTraveltime="2.19" density="21.08" overlapDensity="24.90" laneDensity="21.08" occupancy="3.39" waitingTime="0.00" timeLoss="8.34" speed="4.94" speedRelative="0.89" departed="0" arrived="0" entered="28" left="28" laneChangedFrom="0" laneChangedTo="0" flow="377.53"/>
        <edge id="-1060989493#7" sampledSeconds="158.20" traveltime="6.75" overlapTraveltime="7.53" density="17.32" overlapDensity="19.34" laneDensity="17.32" occupancy="2.93" waitingTime="15.00" timeLoss="38.78" speed="4.28" speedRelative="0.77" departed="0" arrived="0" entered="21" left="21" laneChangedFrom="0" laneChangedTo="0" flow="283.15"/>
        <edge id="-1060989493#8" sampledSeconds="109.56" traveltime="7.52" overlapTraveltime="7.83" density="10.30" overlapDensity="10.72" laneDensity="10.30" occupancy="1.64" waitingTime="0.00" timeLoss="12.47" speed="5.10" speedRelative="0.92" departed="0" arrived="0" entered="14" left="14" laneChangedFrom="0" laneChangedTo="0" flow="188.76"/>
        <edge id="-1060989493#9" sampledSeconds="36.08" traveltime="4.43" overlapTraveltime="5.15" density="14.79" overlapDensity="17.19" laneDensity="14.79" occupancy="2.46" waitingTime="8.00" timeLoss="24.68" speed="1.84" speedRelative="0.33" departed="0" arrived="0" entered="7" left="7" laneChangedFrom="0" laneChangedTo="0" flow="94.38"/>
        <edge id="-1060989494#0" sampledSeconds="19.86" traveltime="2.34" overlapTraveltime="2.84" density="10.44" overlapDensity="12.65" laneDensity="10.44" occupancy="1.74" waitingTime="3.00" timeLoss="10.85" speed="2.64" speedRelative="0.47" departed="0" arrived="0" entered="7" left="7" laneChangedFrom="0" laneChangedTo="0" flow="94.38"/>
        <edge id="-1060989494#1" sampledSeconds="114.38" traveltime="15.86" overlapTraveltime="16.34" density="5.11" overlapDensity="5.27" laneDensity="5.11" occupancy="0.82" waitingTime="1.00" timeLoss="14.51" speed="5.07" speedRelative="0.91" departed="0" arrived="0" entered="7" left="7" laneChangedFrom="0" laneChangedTo="0" flow="94.38"/>
        <edge id="-1060989494#2" sampledSeconds="49.36" traveltime="6.74" overlapTraveltime="7.05" density="4.99" overlapDensity="5.22" laneDensity="4.99" occupancy="0.80" waitingTime="0.00" timeLoss="4.76" speed="5.25" speedRelative="0.94" departed="0" arrived="0" entered="7" left="7" laneChangedFrom="0" laneChangedTo="0" flow="94.38"/>
        <edge id="-1060989494#3" sampledSeconds="0.00" departed="0" arrived="0" entered="0" left="0" laneChangedFrom="0" laneChangedTo="0"/>
        <edge id="-1060989495#0" sampledSeconds="23.54" traveltime="3.06" overlapTraveltime="3.36" density="5.08" overlapDensity="5.57" laneDensity="5.08" occupancy="0.81" waitingTime="0.00" timeLoss="1.28" speed="5.18" speedRelative="0.93" departed="0" arrived="0" entered="7" left="7" laneChangedFrom="0" laneChangedTo="0" flow="94.38"/>
        <edge id="-1060989495#1" sampledSeconds="18.08" traveltime="2.26" overlapTraveltime="2.58" density="5.43" overlapDensity="6.21" laneDensity="5.43" occupancy="0.87" waitingTime="0.00" timeLoss="2.10" speed="4.84" speedRelative="0.87" departed="0" arrived="0" entered="7" left="7" laneChangedFrom="0" laneChangedTo="0" flow="94.38"/>
        <edge id="-1060989496#0" sampledSeconds="0.00" departed="0" arrived="0" entered="0" left="0" laneChangedFrom="0" laneChangedTo="0"/>
        <edge id="-1060989496#1" sampledSeconds="0.00" departed="0" arrived="0" entered="0" left="0" laneChangedFrom="0" laneChangedTo="0"/>
        <edge id="-1060989496#2" sampledSeconds="0.00" departed="0" arrived="0" entered="0" left="0" laneChangedFrom="0" laneChangedTo="0"/>
        <edge id="-1060989496#3" sampledSeconds="0.00" departed="0" arrived="0" entered="0" left="0" laneChangedFrom="0" laneChangedTo="0"/>
        <edge id="-1060989496#4" sampledSeconds="0.00" departed="0" arrived="0" entered="0" left="0" laneChangedFrom="0" laneChangedTo="0"/>
        <edge id="-1061007736#0" sampledSeconds="0.00" departed="0" arrived="0" entered="0" left="0" laneChangedFrom="0" laneChangedTo="0"/>
        <edge id="-1061007736#1" sampledSeconds="55.51" traveltime="16.90" overlapTraveltime="17.21" density="2.33" overlapDensity="2.36" laneDensity="2.33" occupancy="0.37" waitingTime="0.00" timeLoss="3.82" speed="5.20" speedRelative="0.94" departed="0" arrived="3" entered="4" left="0" laneChangedFrom="0" laneChangedTo="0" flow="43.62"/>
        <edge id="-1061007736#2" sampledSeconds="13.81" traveltime="3.02" overlapTraveltime="3.34" density="3.06" overlapDensity="3.37" laneDensity="3.06" occupancy="0.49" waitingTime="0.00" timeLoss="1.43" speed="5.08" speedRelative="0.91" departed="0" arrived="0" entered="5" left="4" laneChangedFrom="0" laneChangedTo="0" flow="55.96"/>
        <edge id="-1061007736#3" sampledSeconds="16.96" traveltime="3.06" overlapTraveltime="3.39" density="3.77" overlapDensity="4.17" laneDensity="3.77" occupancy="0.61" waitingTime="0.00" timeLoss="2.14" speed="4.96" speedRelative="0.89" departed="0" arrived="0" entered="5" left="5" laneChangedFrom="0" laneChangedTo="0" flow="67.42"/>
        <edge id="-1061007736#4" sampledSeconds="18.44" traveltime="3.37" overlapTraveltime="3.69" density="3.84" overlapDensity="4.20" laneDensity="3.84" occupancy="0.62" waitingTime="0.00" timeLoss="2.54" speed="4.89" speedRelative="0.88" departed="0" arrived="0" entered="5" left="5" laneChangedFrom="0" laneChangedTo="0" flow="67.42"/>
        <edge id="-1061007736#5" sampledSeconds="23.02" traveltime="3.06" overlapTraveltime="3.38" density="5.27" overlapDensity="5.74" laneDensity="5.27" occupancy="0.84" waitingTime="0.00" timeLoss="2.48" speed="4.91" speedRelative="0.88" departed="0" arrived="0" entered="7" left="6" laneChangedFrom="0" laneChangedTo="0" flow="92.97"/>
        <edge id="-1061007736#6" sampledSeconds="25.78" traveltime="3.36" overlapTraveltime="3.68" density="5.33" overlapDensity="5.84" laneDensity="5.33" occupancy="0.85" waitingTime="0.00" timeLoss="2.76" speed="4.92" speedRelative="0.89" departed="0" arrived="0" entered="7" left="7" laneChangedFrom="0" laneChangedTo="0" flow="94.38"/>
        <edge id="-1061007736#7" sampledSeconds="24.51" traveltime="3.18" overlapTraveltime="3.50" density="5.30" overlapDensity="5.84" laneDensity="5.30" occupancy="0.85" waitingTime="0.00" timeLoss="2.51" speed="4.95" speedRelative="0.89" departed="0" arrived="0" entered="7" left="7" laneChangedFrom="0" laneChangedTo="0" flow="94.38"/>
        <edge id="-1061007736#8" sampledSeconds="21.98" traveltime="2.82" overlapTraveltime="3.14" density="5.15" overlapDensity="5.73" laneDensity="5.15" occupancy="0.83" waitingTime="0.00" timeLoss="1.72" speed="5.08" speedRelative="0.91" departed="0" arrived="0" entered="7" left="7" laneChangedFrom="0" laneChangedTo="0" flow="94.38"/>
        <edge id="-1061007736#9" sampledSeconds="8.29" traveltime="0.84" overlapTraveltime="1.18" density="6.60" overlapDensity="9.35" laneDensity="6.60" occupancy="1.00" waitingTime="0.00" timeLoss="2.04" speed="4.16" speedRelative="0.75" departed="0" arrived="0" entered="7" left="7" laneChangedFrom="0" laneChangedTo="0" flow="94.38"/>
        <edge id="-1061341066" sampledSeconds="0.00" departed="0" arrived="0" entered="0" left="0" laneChangedFrom="0" laneChangedTo="0"/>
        <edge id="-1061341067#0" sampledSeconds="0.00" departed="0" arrived="0" entered="0" left="0" laneChangedFrom="0" laneChangedTo="0"/>
        <edge id="-1061341067#1" sampledSeconds="0.00" departed="0" arrived="0" entered="0" left="0" laneChangedFrom="0" laneChangedTo="0"/>
        <edge id="-1081677329" sampledSeconds="0.00" departed="0" arrived="0" entered="0" left="0" laneChangedFrom="0" laneChangedTo="0"/>
        <edge id="-1081677330" sampledSeconds="0.00" departed="0" arrived="0" entered="0" left="0" laneChangedFrom="0" laneChangedTo="0"/>
        <edge id="-1081681931" sampledSeconds="0.00" departed="0" arrived="0" entered="0" left="0" laneChangedFrom="0" laneChangedTo="0"/>
        <edge id="-108179183#0" sampledSeconds="0.00" departed="0" arrived="0" entered="0" left="0" laneChangedFrom="0" laneChangedTo="0"/>
        <edge id="-108179183#1" sampledSeconds="0.00" departed="0" arrived="0" entered="0" left="0" laneChangedFrom="0" laneChangedTo="0"/>
        <edge id="-108179183#2" sampledSeconds="0.00" departed="0" arrived="0" entered="0" left="0" laneChangedFrom="0" laneChangedTo="0"/>
        <edge id="-108179314" sampledSeconds="0.00" departed="0" arrived="0" entered="0" left="0" laneChangedFrom="0" laneChangedTo="0"/>
        <edge id="-108534913#0" sampledSeconds="0.00" departed="0" arrived="0" entered="0" left="0" laneChangedFrom="0" laneChangedTo="0"/>
        <edge id="-108534913#1" sampledSeconds="11.74" traveltime="4.91" overlapTraveltime="5.25" density="1.82" overlapDensity="1.93" laneDensity="1.82" occupancy="0.29" waitingTime="0.00" timeLoss="1.85" speed="4.65" speedRelative="0.33" departed="0" arrived="0" entered="3" left="2" laneChangedFrom="0" laneChangedTo="0" flow="30.41"/>
        <edge id="-108534913#2" sampledSeconds="39.71" traveltime="19.52" overlapTraveltime="19.86" density="1.59" overlapDensity="1.62" laneDensity="1.59" occupancy="0.25" waitingTime="0.00" timeLoss="6.29" speed="4.71" speedRelative="0.34" departed="0" arrived="0" entered="2" left="2" laneChangedFrom="0" laneChangedTo="0" flow="26.97"/>
        <edge id="-108534913#3" sampledSeconds="10.44" traveltime="4.88" overlapTraveltime="5.22" density="1.58" overlapDensity="1.70" laneDensity="1.58" occupancy="0.25" waitingTime="0.00" timeLoss="1.62" speed="4.72" speedRelative="0.34" departed="0" arrived="0" entered="2" left="2" laneChangedFrom="0" laneChangedTo="0" flow="26.97"/>
        <edge id="-108534913#4" sampledSeconds="27.68" traveltime="13.50" overlapTraveltime="13.84" density="1.59" overlapDensity="1.63" laneDensity="1.59" occupancy="0.26" waitingTime="0.00" timeLoss="4.40" speed="4.70" speedRelative="0.34" departed="0" arrived="0" entered="2" left="2" laneChangedFrom="0" laneChangedTo="0" flow="26.97"/>
        <edge id="-108534913#5" sampledSeconds="27.20" traveltime="13.26" overlapTraveltime="13.60" density="1.59" overlapDensity="1.63" laneDensity="1.59" occupancy="0.25" waitingTime="0.00" timeLoss="4.28" speed="4.71" speedRelative="0.34" departed="0" arrived="0" entered="2" left="2" laneChangedFrom="0" laneChangedTo="0" flow="26.97"/>
        <edge id="-108534913#6" sampledSeconds="27.54" traveltime="0.04" overlapTraveltime="6.77" density="1.54" overlapDensity="476.19" laneDensity="1.54" occupancy="10.25" waitingTime="18.00" timeLoss="25.14" speed="0.35" speedRelative="0.03" departed="3" arrived="0" entered="2" left="5" laneChangedFrom="0" laneChangedTo="0" flow="26.97"/>
        <edge id="-1125729965#0" sampledSeconds="0.00" departed="0" arrived="0" entered="0" left="0" laneChangedFrom="0" laneChangedTo="0"/>
        <edge id="-1125729965#1" sampledSeconds="0.00" departed="0" arrived="0" entered="0" left="0" laneChangedFrom="0" laneChangedTo="0"/>
        <edge id="-1125729966" sampledSeconds="77.48" traveltime="10.78" overlapTraveltime="11.22" density="16.79" overlapDensity="17.26" laneDensity="16.79" occupancy="2.68" waitingTime="46.00" timeLoss="54.23" speed="1.64" speedRelative="0.30" departed="0" arrived="0" entered="7" left="6" laneChangedFrom="0" laneChangedTo="0" flow="94.30"/>
        <edge id="-1125912866" sampledSeconds="881.97" traveltime="22.53" overlapTraveltime="23.67" density="86.00" overlapDensity="87.48" laneDensity="86.00" occupancy="29.56" waitingTime="551.00" timeLoss="743.47" speed="1.75" speedRelative="0.13" departed="0" arrived="0" entered="42" left="35" laneChangedFrom="0" laneChangedTo="0" flow="518.79"/>
        <edge id="-1125912867" sampledSeconds="142.14" traveltime="4.52" overlapTraveltime="6.18" density="133.87" overlapDensity="157.50" laneDensity="133.87" occupancy="33.60" waitingTime="89.00" timeLoss="118.98" speed="1.19" speedRelative="0.09" departed="0" arrived="0" entered="27" left="26" laneChangedFrom="0" laneChangedTo="0" flow="360.05"/>
        <edge id="-1125912916#0" sampledSeconds="40.07" traveltime="0.89" overlapTraveltime="1.20" density="17.82" overlapDensity="23.97" laneDensity="17.82" occupancy="4.25" waitingTime="0.00" timeLoss="11.96" speed="7.43" speedRelative="0.53" departed="0" arrived="0" entered="34" left="33" laneChangedFrom="0" laneChangedTo="0" flow="451.57"/>
        <edge id="-1125912916#1" sampledSeconds="64.59" traveltime="1.45" overlapTraveltime="1.88" density="25.45" overlapDensity="33.37" laneDensity="25.45" occupancy="6.21" waitingTime="2.00" timeLoss="23.97" speed="5.21" speedRelative="0.38" departed="0" arrived="0" entered="34" left="34" laneChangedFrom="0" laneChangedTo="0" flow="458.43"/>
        <edge id="-1125912916#2" sampledSeconds="52.01" traveltime="2.12" overlapTraveltime="2.43" density="12.07" overlapDensity="14.11" laneDensity="12.07" occupancy="3.02" waitingTime="1.00" timeLoss="13.92" speed="6.76" speedRelative="0.49" departed="0" arrived="0" entered="21" left="21" laneChangedFrom="0" laneChangedTo="0" flow="283.15"/>
        <edge id="-1125912916#3" sampledSeconds="114.76" traveltime="5.25" overlapTraveltime="5.52" density="13.90" overlapDensity="14.76" laneDensity="13.90" occupancy="3.45" waitingTime="1.00" timeLoss="43.10" speed="5.76" speedRelative="0.41" departed="7" arrived="0" entered="14" left="21" laneChangedFrom="0" laneChangedTo="0" flow="277.64"/>
        <edge id="-1149027724" sampledSeconds="0.00" departed="0" arrived="0" entered="0" left="0" laneChangedFrom="0" laneChangedTo="0"/>
        <edge id="-1156915072#0" sampledSeconds="649.97" traveltime="10.71" overlapTraveltime="11.60" density="68.34" overlapDensity="73.50" laneDensity="68.34" occupancy="27.01" waitingTime="146.00" timeLoss="472.13" speed="3.20" speedRelative="0.23" departed="1" arrived="0" entered="57" left="55" laneChangedFrom="0" laneChangedTo="0" flow="761.13"/>
        <edge id="-1156915072#1" sampledSeconds="257.47" traveltime="4.49" overlapTraveltime="5.19" density="52.19" overlapDensity="59.31" laneDensity="52.19" occupancy="20.45" waitingTime="84.00" timeLoss="184.87" speed="3.91" speedRelative="0.28" departed="0" arrived="0" entered="51" left="50" laneChangedFrom="0" laneChangedTo="0" flow="679.75"/>
        <edge id="-1156915072#2" sampledSeconds="93.10" traveltime="5.53" overlapTraveltime="3.28" density="52.99" overlapDensity="86.52" laneDensity="52.99" occupancy="19.01" waitingTime="42.00" timeLoss="78.66" speed="2.14" speedRelative="0.15" departed="46" arrived="0" entered="0" left="45" laneChangedFrom="0" laneChangedTo="0" flow="138.91"/>
        <edge id="-1156915074" sampledSeconds="0.00" departed="0" arrived="0" entered="0" left="0" laneChangedFrom="0" laneChangedTo="0"/>
        <edge id="-1163294283" sampledSeconds="114.12" traveltime="16.43" overlapTraveltime="17.04" density="10.87" overlapDensity="11.29" laneDensity="10.87" occupancy="1.78" waitingTime="15.00" timeLoss="66.28" speed="2.32" speedRelative="0.17" departed="7" arrived="0" entered="0" left="7" laneChangedFrom="0" laneChangedTo="0" flow="90.14"/>
        <edge id="-1183389476#0" sampledSeconds="128.03" traveltime="2.66" overlapTraveltime="4.65" density="476.19" overlapDensity="476.19" laneDensity="476.19" occupancy="30.86" waitingTime="94.00" timeLoss="113.49" speed="0.97" speedRelative="0.07" departed="7" arrived="0" entered="34" left="40" laneChangedFrom="0" laneChangedTo="0" flow="128.89"/>
        <edge id="-1183389476#1" sampledSeconds="29.74" traveltime="0.04" overlapTraveltime="1.08" density="28.21" overlapDensity="476.19" laneDensity="28.21" occupancy="10.57" waitingTime="0.00" timeLoss="19.03" speed="3.83" speedRelative="0.28" departed="0" arrived="0" entered="34" left="34" laneChangedFrom="0" laneChangedTo="0" flow="458.43"/>
        <edge id="-1183389476#2" sampledSeconds="20.90" traveltime="0.05" overlapTraveltime="0.92" density="25.37" overlapDensity="391.46" laneDensity="25.37" occupancy="7.35" waitingTime="0.00" timeLoss="12.00" speed="4.37" speedRelative="0.31" departed="0" arrived="0" entered="27" left="27" laneChangedFrom="0" laneChangedTo="0" flow="364.04"/>
        <edge id="-1183389476#3" sampledSeconds="32.86" traveltime="0.87" overlapTraveltime="1.59" density="21.48" overlapDensity="38.46" laneDensity="21.48" occupancy="6.27" waitingTime="3.00" timeLoss="19.44" speed="4.18" speedRelative="0.30" departed="0" arrived="0" entered="21" left="21" laneChangedFrom="0" laneChangedTo="0" flow="283.15"/>
        <edge id="-1183389476#4" sampledSeconds="14.80" traveltime="0.04" overlapTraveltime="0.86" density="16.35" overlapDensity="277.18" laneDensity="16.35" occupancy="5.23" waitingTime="0.00" timeLoss="8.17" speed="5.01" speedRelative="0.36" departed="0" arrived="0" entered="21" left="21" laneChangedFrom="0" laneChangedTo="0" flow="283.15"/>
        <edge id="-1188778649" sampledSeconds="0.00" departed="0" arrived="0" entered="0" left="0" laneChangedFrom="0" laneChangedTo="0"/>
        <edge id="-118915928#1" sampledSeconds="182.61" traveltime="28.13" overlapTraveltime="28.40" density="2.52" overlapDensity="2.53" laneDensity="2.52" occupancy="0.61" waitingTime="0.00" timeLoss="52.80" speed="9.61" speedRelative="0.69" departed="11" arrived="0" entered="0" left="1" laneChangedFrom="0" laneChangedTo="0" flow="87.36"/>
        <edge id="-118915930" sampledSeconds="0.00" departed="0" arrived="0" entered="0" left="0" laneChangedFrom="0" laneChangedTo="0"/>
        <edge id="-118915931#1" sampledSeconds="1447.65" traveltime="86.40" overlapTraveltime="88.55" density="87.23" overlapDensity="87.85" laneDensity="87.23" occupancy="33.99" waitingTime="1100.00" timeLoss="1364.58" speed="0.74" speedRelative="0.05" departed="0" arrived="0" entered="20" left="12" laneChangedFrom="0" laneChangedTo="0" flow="224.34"/>
        <edge id="-118915931#2" sampledSeconds="144.76" traveltime="17.02" overlapTraveltime="17.97" density="11.93" overlapDensity="12.28" laneDensity="11.93" occupancy="5.86" waitingTime="99.00" timeLoss="115.64" speed="2.73" speedRelative="0.20" departed="0" arrived="0" entered="10" left="7" laneChangedFrom="0" laneChangedTo="0" flow="111.38"/>
        <edge id="-118915931#3" sampledSeconds="73.95" traveltime="6.45" overlapTraveltime="6.78" density="4.23" overlapDensity="4.44" laneDensity="4.23" occupancy="1.67" waitingTime="0.00" timeLoss="21.63" speed="9.76" speedRelative="0.70" departed="14" arrived="0" entered="0" left="10" laneChangedFrom="0" laneChangedTo="0" flow="147.11"/>
        <edge id="-118915934" sampledSeconds="0.00" departed="0" arrived="0" entered="0" left="0" laneChangedFrom="0" laneChangedTo="0"/>
        <edge id="-118915940#0" sampledSeconds="0.00" departed="0" arrived="0" entered="0" left="0" laneChangedFrom="0" laneChangedTo="0"/>
        <edge id="-118915940#1" sampledSeconds="8.29" traveltime="3.92" overlapTraveltime="4.41" density="0.88" overlapDensity="0.93" laneDensity="0.88" occupancy="0.40" waitingTime="0.00" timeLoss="2.97" speed="8.74" speedRelative="0.63" departed="0" arrived="2" entered="2" left="0" laneChangedFrom="0" laneChangedTo="0" flow="26.97"/>
        <edge id="-118915964#0" sampledSeconds="272.08" traveltime="19.79" overlapTraveltime="20.07" density="11.13" overlapDensity="11.22" laneDensity="11.13" occupancy="2.45" waitingTime="139.00" timeLoss="176.70" speed="4.64" speedRelative="0.33" departed="0" arrived="0" entered="14" left="10" laneChangedFrom="0" laneChangedTo="0" flow="183.98"/>
        <edge id="-118915964#1" sampledSeconds="74.45" traveltime="5.36" overlapTraveltime="5.57" density="5.52" overlapDensity="5.75" laneDensity="5.52" occupancy="1.24" waitingTime="0.00" timeLoss="23.24" speed="9.10" speedRelative="0.66" departed="14" arrived="0" entered="0" left="14" laneChangedFrom="0" laneChangedTo="0" flow="179.81"/>
        <edge id="-118915966#0" sampledSeconds="30.57" traveltime="4.05" overlapTraveltime="4.43" density="1.97" overlapDensity="2.12" laneDensity="1.97" occupancy="0.98" waitingTime="0.00" timeLoss="2.33" speed="13.33" speedRelative="0.96" departed="0" arrived="7" entered="7" left="0" laneChangedFrom="0" laneChangedTo="0" flow="94.38"/>
        <edge id="-118915966#1" sampledSeconds="32.84" traveltime="4.32" overlapTraveltime="4.69" density="2.47" overlapDensity="2.68" laneDensity="2.47" occupancy="1.18" waitingTime="0.00" timeLoss="8.17" speed="10.85" speedRelative="0.78" departed="0" arrived="0" entered="7" left="7" laneChangedFrom="0" laneChangedTo="0" flow="94.38"/>
        <edge id="-118915966#2" sampledSeconds="42.13" traveltime="3.98" overlapTraveltime="4.68" density="3.85" overlapDensity="4.53" laneDensity="3.85" occupancy="1.94" waitingTime="0.00" timeLoss="12.51" speed="8.52" speedRelative="0.61" departed="0" arrived="0" entered="9" left="9" laneChangedFrom="0" laneChangedTo="0" flow="121.35"/>
        <edge id="-1190968366#0" sampledSeconds="0.00" departed="0" arrived="0" entered="0" left="0" laneChangedFrom="0" laneChangedTo="0"/>
        <edge id="-1190968366#1" sampledSeconds="0.00" departed="0" arrived="0" entered="0" left="0" laneChangedFrom="0" laneChangedTo="0"/>
        <edge id="-1190968366#2" sampledSeconds="0.00" departed="0" arrived="0" entered="0" left="0" laneChangedFrom="0" laneChangedTo="0"/>
        <edge id="-1190968366#3" sampledSeconds="0.00" departed="0" arrived="0" entered="0" left="0" laneChangedFrom="0" laneChangedTo="0"/>
        <edge id="-1190968366#4" sampledSeconds="0.00" departed="0" arrived="0" entered="0" left="0" laneChangedFrom="0" laneChangedTo="0"/>
        <edge id="-1190968366#5" sampledSeconds="0.00" departed="0" arrived="0" entered="0" left="0" laneChangedFrom="0" laneChangedTo="0"/>
        <edge id="-1191966697" sampledSeconds="0.00" departed="0" arrived="0" entered="0" left="0" laneChangedFrom="0" laneChangedTo="0"/>
        <edge id="-1191966698" sampledSeconds="5.53" traveltime="1.89" overlapTraveltime="2.76" density="1.16" overlapDensity="1.70" laneDensity="1.16" occupancy="0.57" waitingTime="0.00" timeLoss="2.31" speed="6.22" speedRelative="0.45" departed="0" arrived="0" entered="2" left="2" laneChangedFrom="0" laneChangedTo="0" flow="26.97"/>
        <edge id="-1191966699" sampledSeconds="0.00" departed="0" arrived="0" entered="0" left="0" laneChangedFrom="0" laneChangedTo="0"/>
        <edge id="-1191966700" sampledSeconds="7.18" traveltime="0.70" overlapTraveltime="1.03" density="5.93" overlapDensity="8.65" laneDensity="5.93" occupancy="0.91" waitingTime="0.00" timeLoss="1.42" speed="4.59" speedRelative="0.33" departed="0" arrived="0" entered="7" left="7" laneChangedFrom="0" laneChangedTo="0" flow="94.38"/>
        <edge id="-1192037622" sampledSeconds="25.75" traveltime="6.06" overlapTraveltime="6.44" density="1.43" overlapDensity="1.52" laneDensity="1.43" occupancy="0.31" waitingTime="0.00" timeLoss="7.05" speed="10.22" speedRelative="0.74" departed="0" arrived="0" entered="4" left="4" laneChangedFrom="0" laneChangedTo="0" flow="53.93"/>
        <edge id="-1192037623#0" sampledSeconds="2.15" traveltime="1.77" overlapTraveltime="2.15" density="0.36" overlapDensity="0.44" laneDensity="0.36" occupancy="0.17" waitingTime="0.00" timeLoss="0.58" speed="10.90" speedRelative="0.79" departed="0" arrived="1" entered="1" left="0" laneChangedFrom="0" laneChangedTo="0" flow="13.48"/>
        <edge id="-1192037623#1" sampledSeconds="54.26" traveltime="7.69" overlapTraveltime="8.09" density="3.68" overlapDensity="3.88" laneDensity="3.68" occupancy="0.83" waitingTime="0.00" timeLoss="24.92" speed="6.74" speedRelative="0.49" departed="7" arrived="0" entered="0" left="7" laneChangedFrom="0" laneChangedTo="0" flow="90.24"/>