<?xml version="1.0" encoding="UTF-8"?>

<!-- generated on 2026-02-01T21:08:28.621871+07:00 by Eclipse SUMO sumo v1_25_0+0904-59bbc76848e
<sumoConfiguration xmlns:xsi="http://www.w3.org/2001/XMLSchema-instance" xsi:noNamespaceSchemaLocation="http://sumo.dlr.de/xsd/sumoConfiguration.xsd">

    <input>
        <net-file value="maps/CTU_map/osm.net.xml.gz"/>
        <route-files value="maps/CTU_map/osm.bicycle.trips.xml,maps/CTU_map/osm.motorcycle.trips.xml,maps/CTU_map/osm.passenger.trips.xml,maps/CTU_map/osm.pedestrian.rou.xml"/>
        <additional-files value="maps/CTU_map/osm.poly.xml.gz,maps/CTU_map/output.add.xml"/>
    </input>

    <output>
        <tripinfo-output value="maps/CTU_map/tripinfos.xml"/>
        <statistic-output value="maps/CTU_map/stats.xml"/>
    </output>

    <processing>
        <ignore-route-errors value="true"/>
        <scale value="5.0"/>
        <tls.actuated.jam-threshold value="30"/>
    </processing>

    <routing>
        <device.rerouting.adaptation-steps value="18"/>
        <device.rerouting.adaptation-interval value="10"/>
    </routing>

    <report>
        <verbose value="true"/>
        <no-warnings value="true"/>
        <no-step-log value="true"/>
    </report>

    <emissions>
        <device.emissions.probability value="1.0"/>
    </emissions>

    <traci_server>
        <remote-port value="46011"/>
    </traci_server>

    <gui_only>
        <gui-settings-file value="maps/CTU_map/osm.view.xml"/>
        <quit-on-end value="true"/>
        <start value="true"/>
        <delay value="20"/>
    </gui_only>

</sumoConfiguration>
-->

<meandata xmlns:xsi="http://www.w3.org/2001/XMLSchema-instance" xsi:noNamespaceSchemaLocation="http://sumo.dlr.de/xsd/meandata_file.xsd">
    <interval begin="0.00" end="262.00" id="wizard_example">
        <edge id="-1006436797#0" sampledSeconds="49.99" traveltime="10.14" overlapTraveltime="10.44" density="4.77" overlapDensity="4.92" laneDensity="4.77" occupancy="0.77" waitingTime="0.00" timeLoss="16.14" speed="3.87" speedRelative="0.70" departed="5" arrived="0" entered="0" left="5" laneChangedFrom="0" laneChangedTo="0" flow="65.69"/>
        <edge id="-1006436797#1" sampledSeconds="0.00" departed="0" arrived="0" entered="0" left="0" laneChangedFrom="0" laneChangedTo="0"/>
        <edge id="-1006436797#2" sampledSeconds="5.35" traveltime="2.36" overlapTraveltime="2.68" density="1.57" overlapDensity="1.78" laneDensity="1.57" occupancy="0.25" waitingTime="0.00" timeLoss="0.61" speed="4.88" speedRelative="0.88" departed="0" arrived="0" entered="2" left="2" laneChangedFrom="0" laneChangedTo="0" flow="27.48"/>
        <edge id="-1006436797#3" sampledSeconds="8.30" traveltime="3.84" overlapTraveltime="4.15" density="1.48" overlapDensity="1.60" laneDensity="1.48" occupancy="0.24" waitingTime="0.00" timeLoss="0.54" speed="5.16" speedRelative="0.93" departed="0" arrived="0" entered="2" left="2" laneChangedFrom="0" laneChangedTo="0" flow="27.48"/>
        <edge id="-1006436797#4" sampledSeconds="0.00" departed="0" arrived="0" entered="0" left="0" laneChangedFrom="0" laneChangedTo="0"/>
        <edge id="-1006436798" sampledSeconds="79.14" traveltime="15.11" overlapTraveltime="15.83" density="5.84" overlapDensity="6.12" laneDensity="5.84" occupancy="0.95" waitingTime="8.00" timeLoss="34.33" speed="3.22" speedRelative="0.58" departed="0" arrived="0" entered="5" left="5" laneChangedFrom="0" laneChangedTo="0" flow="68.70"/>
        <edge id="-1006436799#0" sampledSeconds="0.00" departed="0" arrived="0" entered="0" left="0" laneChangedFrom="0" laneChangedTo="0"/>
        <edge id="-1006436799#1" sampledSeconds="0.35" traveltime="0.07" overlapTraveltime="0.35" density="0.68" overlapDensity="3.45" laneDensity="0.68" occupancy="0.11" waitingTime="0.00" timeLoss="0.00" speed="5.65" speedRelative="1.02" departed="0" arrived="0" entered="1" left="1" laneChangedFrom="0" laneChangedTo="0" flow="13.74"/>
        <edge id="-1006436802#0" sampledSeconds="1.40" traveltime="1.10" overlapTraveltime="1.40" density="0.71" overlapDensity="0.91" laneDensity="0.71" occupancy="0.11" waitingTime="0.00" timeLoss="0.09" speed="5.34" speedRelative="0.96" departed="0" arrived="1" entered="1" left="0" laneChangedFrom="0" laneChangedTo="0" flow="13.74"/>
        <edge id="-1006436802#1" sampledSeconds="0.00" departed="0" arrived="0" entered="0" left="0" laneChangedFrom="0" laneChangedTo="0"/>
        <edge id="-1006436820" sampledSeconds="0.00" departed="0" arrived="0" entered="0" left="0" laneChangedFrom="0" laneChangedTo="0"/>
        <edge id="-1049200866" sampledSeconds="215.62" traveltime="14.88" overlapTraveltime="15.99" density="20.70" overlapDensity="21.89" laneDensity="20.70" occupancy="8.81" waitingTime="92.00" timeLoss="167.27" speed="2.61" speedRelative="0.19" departed="15" arrived="0" entered="0" left="15" laneChangedFrom="0" laneChangedTo="0" flow="188.38"/>
        <edge id="-1050341200" sampledSeconds="0.00" departed="0" arrived="0" entered="0" left="0" laneChangedFrom="0" laneChangedTo="0"/>
        <edge id="-1060989491" sampledSeconds="0.00" departed="0" arrived="0" entered="0" left="0" laneChangedFrom="0" laneChangedTo="0"/>
        <edge id="-1060989493#0" sampledSeconds="122.62" traveltime="7.79" overlapTraveltime="8.17" density="11.99" overlapDensity="12.58" laneDensity="11.99" occupancy="1.93" waitingTime="0.00" timeLoss="18.43" speed="4.75" speedRelative="0.85" departed="0" arrived="0" entered="15" left="15" laneChangedFrom="0" laneChangedTo="0" flow="206.11"/>
        <edge id="-1060989493#1" sampledSeconds="122.93" traveltime="7.87" overlapTraveltime="8.20" density="11.76" overlapDensity="12.24" laneDensity="11.76" occupancy="1.88" waitingTime="0.00" timeLoss="17.31" speed="4.87" speedRelative="0.88" departed="0" arrived="0" entered="15" left="15" laneChangedFrom="0" laneChangedTo="0" flow="206.11"/>
        <edge id="-1060989493#2" sampledSeconds="71.14" traveltime="4.39" overlapTraveltime="4.74" density="12.33" overlapDensity="13.33" laneDensity="12.33" occupancy="1.97" waitingTime="0.00" timeLoss="12.78" speed="4.63" speedRelative="0.83" departed="0" arrived="0" entered="15" left="15" laneChangedFrom="0" laneChangedTo="0" flow="206.11"/>
        <edge id="-1060989493#3" sampledSeconds="47.00" traveltime="2.51" overlapTraveltime="3.13" density="11.70" overlapDensity="14.62" laneDensity="11.70" occupancy="1.92" waitingTime="3.00" timeLoss="10.36" speed="4.43" speedRelative="0.80" departed="0" arrived="0" entered="15" left="15" laneChangedFrom="0" laneChangedTo="0" flow="206.11"/>
        <edge id="-1060989493#4" sampledSeconds="142.42" traveltime="9.08" overlapTraveltime="9.49" density="13.46" overlapDensity="14.08" laneDensity="13.46" occupancy="2.17" waitingTime="0.00" timeLoss="36.19" speed="4.24" speedRelative="0.76" departed="0" arrived="0" entered="15" left="15" laneChangedFrom="0" laneChangedTo="0" flow="206.11"/>
        <edge id="-1060989493#5" sampledSeconds="43.88" traveltime="1.87" overlapTraveltime="2.19" density="15.48" overlapDensity="18.18" laneDensity="15.48" occupancy="2.48" waitingTime="0.00" timeLoss="5.90" speed="4.93" speedRelative="0.89" departed="0" arrived="0" entered="20" left="20" laneChangedFrom="0" laneChangedTo="0" flow="274.81"/>
        <edge id="-1060989493#7" sampledSeconds="100.40" traveltime="6.37" overlapTraveltime="6.69" density="11.89" overlapDensity="12.51" laneDensity="11.89" occupancy="1.91" waitingTime="0.00" timeLoss="15.63" speed="4.82" speedRelative="0.87" departed="0" arrived="0" entered="15" left="15" laneChangedFrom="0" laneChangedTo="0" flow="206.11"/>
        <edge id="-1060989493#8" sampledSeconds="78.91" traveltime="7.57" overlapTraveltime="7.89" density="7.55" overlapDensity="7.87" laneDensity="7.55" occupancy="1.21" waitingTime="0.00" timeLoss="9.17" speed="5.05" speedRelative="0.91" departed="0" arrived="0" entered="10" left="10" laneChangedFrom="0" laneChangedTo="0" flow="137.40"/>
        <edge id="-1060989493#9" sampledSeconds="10.07" traveltime="1.68" overlapTraveltime="2.01" density="4.08" overlapDensity="4.89" laneDensity="4.08" occupancy="0.66" waitingTime="0.00" timeLoss="1.82" speed="4.70" speedRelative="0.84" departed="0" arrived="0" entered="5" left="5" laneChangedFrom="0" laneChangedTo="0" flow="68.70"/>
        <edge id="-1060989494#0" sampledSeconds="8.64" traveltime="1.39" overlapTraveltime="1.73" density="4.52" overlapDensity="5.61" laneDensity="4.52" occupancy="0.72" waitingTime="0.00" timeLoss="2.12" speed="4.33" speedRelative="0.78" departed="0" arrived="0" entered="5" left="5" laneChangedFrom="0" laneChangedTo="0" flow="68.70"/>
        <edge id="-1060989494#1" sampledSeconds="84.22" traveltime="16.49" overlapTraveltime="16.84" density="3.87" overlapDensity="3.95" laneDensity="3.87" occupancy="0.62" waitingTime="0.00" timeLoss="11.94" speed="4.92" speedRelative="0.89" departed="0" arrived="0" entered="5" left="5" laneChangedFrom="0" laneChangedTo="0" flow="68.70"/>
        <edge id="-1060989494#2" sampledSeconds="38.43" traveltime="7.35" overlapTraveltime="7.69" density="3.96" overlapDensity="4.14" laneDensity="3.96" occupancy="0.63" waitingTime="0.00" timeLoss="6.15" speed="4.82" speedRelative="0.87" departed="0" arrived="0" entered="5" left="5" laneChangedFrom="0" laneChangedTo="0" flow="68.70"/>
        <edge id="-1060989494#3" sampledSeconds="0.00" departed="0" arrived="0" entered="0" left="0" laneChangedFrom="0" laneChangedTo="0"/>
        <edge id="-1060989495#0" sampledSeconds="16.71" traveltime="3.04" overlapTraveltime="3.34" density="3.67" overlapDensity="4.03" laneDensity="3.67" occupancy="0.59" waitingTime="0.00" timeLoss="1.30" speed="5.21" speedRelative="0.94" departed="0" arrived="0" entered="5" left="5" laneChangedFrom="0" laneChangedTo="0" flow="68.70"/>
        <edge id="-1060989495#1" sampledSeconds="13.93" traveltime="2.46" overlapTraveltime="2.79" density="4.31" overlapDensity="4.88" laneDensity="4.31" occupancy="0.69" waitingTime="0.00" timeLoss="2.87" speed="4.49" speedRelative="0.81" departed="0" arrived="0" entered="5" left="5" laneChangedFrom="0" laneChangedTo="0" flow="68.70"/>
        <edge id="-1060989496#0" sampledSeconds="0.00" departed="0" arrived="0" entered="0" left="0" laneChangedFrom="0" laneChangedTo="0"/>
        <edge id="-1060989496#1" sampledSeconds="0.00" departed="0" arrived="0" entered="0" left="0" laneChangedFrom="0" laneChangedTo="0"/>
        <edge id="-1060989496#2" sampledSeconds="0.00" departed="0" arrived="0" entered="0" left="0" laneChangedFrom="0" laneChangedTo="0"/>
        <edge id="-1060989496#3" sampledSeconds="0.00" departed="0" arrived="0" entered="0" left="0" laneChangedFrom="0" laneChangedTo="0"/>
        <edge id="-1060989496#4" sampledSeconds="0.00" departed="0" arrived="0" entered="0" left="0" laneChangedFrom="0" laneChangedTo="0"/>
        <edge id="-1061007736#0" sampledSeconds="0.00" departed="0" arrived="0" entered="0" left="0" laneChangedFrom="0" laneChangedTo="0"/>
        <edge id="-1061007736#1" sampledSeconds="42.62" traveltime="16.67" overlapTraveltime="16.97" density="1.84" overlapDensity="1.85" laneDensity="1.84" occupancy="0.29" waitingTime="0.00" timeLoss="2.31" speed="5.28" speedRelative="0.95" departed="0" arrived="1" entered="3" left="0" laneChangedFrom="0" laneChangedTo="0" flow="34.88"/>
        <edge id="-1061007736#2" sampledSeconds="10.52" traveltime="3.18" overlapTraveltime="3.51" density="2.37" overlapDensity="2.61" laneDensity="2.37" occupancy="0.38" waitingTime="0.00" timeLoss="1.37" speed="4.84" speedRelative="0.87" departed="0" arrived="0" entered="3" left="3" laneChangedFrom="0" laneChangedTo="0" flow="41.22"/>
        <edge id="-1061007736#3" sampledSeconds="13.64" traveltime="3.10" overlapTraveltime="3.43" density="3.11" overlapDensity="3.42" laneDensity="3.11" occupancy="0.50" waitingTime="0.00" timeLoss="1.83" speed="4.90" speedRelative="0.88" departed="0" arrived="0" entered="4" left="4" laneChangedFrom="0" laneChangedTo="0" flow="54.96"/>
        <edge id="-1061007736#4" sampledSeconds="17.62" traveltime="3.21" overlapTraveltime="3.52" density="3.73" overlapDensity="4.09" laneDensity="3.73" occupancy="0.60" waitingTime="0.00" timeLoss="1.73" speed="5.12" speedRelative="0.92" departed="0" arrived="0" entered="5" left="5" laneChangedFrom="0" laneChangedTo="0" flow="68.70"/>
        <edge id="-1061007736#5" sampledSeconds="16.15" traveltime="2.92" overlapTraveltime="3.23" density="3.71" overlapDensity="4.11" laneDensity="3.71" occupancy="0.60" waitingTime="0.00" timeLoss="1.52" speed="5.14" speedRelative="0.92" departed="0" arrived="0" entered="5" left="5" laneChangedFrom="0" laneChangedTo="0" flow="68.70"/>
        <edge id="-1061007736#6" sampledSeconds="17.99" traveltime="3.27" overlapTraveltime="3.60" density="3.78" overlapDensity="4.15" laneDensity="3.78" occupancy="0.61" waitingTime="0.00" timeLoss="2.02" speed="5.04" speedRelative="0.91" departed="0" arrived="0" entered="5" left="5" laneChangedFrom="0" laneChangedTo="0" flow="68.70"/>
        <edge id="-1061007736#7" sampledSeconds="17.33" traveltime="3.14" overlapTraveltime="3.47" density="3.81" overlapDensity="4.20" laneDensity="3.81" occupancy="0.61" waitingTime="0.00" timeLoss="2.06" speed="5.00" speedRelative="0.90" departed="0" arrived="0" entered="5" left="5" laneChangedFrom="0" laneChangedTo="0" flow="68.70"/>
        <edge id="-1061007736#8" sampledSeconds="15.74" traveltime="2.84" overlapTraveltime="3.15" density="3.77" overlapDensity="4.18" laneDensity="3.77" occupancy="0.60" waitingTime="0.00" timeLoss="1.68" speed="5.07" speedRelative="0.91" departed="0" arrived="0" entered="5" left="5" laneChangedFrom="0" laneChangedTo="0" flow="68.70"/>
        <edge id="-1061007736#9" sampledSeconds="5.39" traveltime="0.75" overlapTraveltime="1.08" density="4.30" overlapDensity="6.20" laneDensity="4.30" occupancy="0.67" waitingTime="0.00" timeLoss="1.06" speed="4.56" speedRelative="0.82" departed="0" arrived="0" entered="5" left="5" laneChangedFrom="0" laneChangedTo="0" flow="68.70"/>
        <edge id="-1061341066" sampledSeconds="0.00" departed="0" arrived="0" entered="0" left="0" laneChangedFrom="0" laneChangedTo="0"/>
        <edge id="-1061341067#0" sampledSeconds="0.00" departed="0" arrived="0" entered="0" left="0" laneChangedFrom="0" laneChangedTo="0"/>
        <edge id="-1061341067#1" sampledSeconds="0.00" departed="0" arrived="0" entered="0" left="0" laneChangedFrom="0" laneChangedTo="0"/>
        <edge id="-1081677329" sampledSeconds="0.00" departed="0" arrived="0" entered="0" left="0" laneChangedFrom="0" laneChangedTo="0"/>
        <edge id="-1081677330" sampledSeconds="0.00" departed="0" arrived="0" entered="0" left="0" laneChangedFrom="0" laneChangedTo="0"/>
        <edge id="-1081681931" sampledSeconds="0.00" departed="0" arrived="0" entered="0" left="0" laneChangedFrom="0" laneChangedTo="0"/>
        <edge id="-108179183#0" sampledSeconds="0.00" departed="0" arrived="0" entered="0" left="0" laneChangedFrom="0" laneChangedTo="0"/>
        <edge id="-108179183#1" sampledSeconds="0.00" departed="0" arrived="0" entered="0" left="0" laneChangedFrom="0" laneChangedTo="0"/>
        <edge id="-108179183#2" sampledSeconds="0.00" departed="0" arrived="0" entered="0" left="0" laneChangedFrom="0" laneChangedTo="0"/>
        <edge id="-108179314" sampledSeconds="0.00" departed="0" arrived="0" entered="0" left="0" laneChangedFrom="0" laneChangedTo="0"/>
        <edge id="-108534913#0" sampledSeconds="0.00" departed="0" arrived="0" entered="0" left="0" laneChangedFrom="0" laneChangedTo="0"/>
        <edge id="-108534913#1" sampledSeconds="18.70" traveltime="4.34" overlapTraveltime="4.68" density="2.91" overlapDensity="3.13" laneDensity="2.91" occupancy="0.47" waitingTime="0.00" timeLoss="1.62" speed="5.21" speedRelative="0.38" departed="0" arrived="0" entered="4" left="4" laneChangedFrom="0" laneChangedTo="0" flow="54.96"/>
        <edge id="-108534913#2" sampledSeconds="69.01" traveltime="16.95" overlapTraveltime="17.25" density="2.82" overlapDensity="2.87" laneDensity="2.82" occupancy="0.45" waitingTime="0.00" timeLoss="3.51" speed="5.42" speedRelative="0.39" departed="0" arrived="0" entered="4" left="4" laneChangedFrom="0" laneChangedTo="0" flow="54.96"/>
        <edge id="-108534913#3" sampledSeconds="22.89" traveltime="4.26" overlapTraveltime="4.58" density="3.60" overlapDensity="3.79" laneDensity="3.60" occupancy="0.61" waitingTime="0.00" timeLoss="1.95" speed="5.42" speedRelative="0.39" departed="0" arrived="0" entered="6" left="4" laneChangedFrom="0" laneChangedTo="0" flow="70.13"/>
        <edge id="-108534913#4" sampledSeconds="100.56" traveltime="11.65" overlapTraveltime="12.20" density="5.88" overlapDensity="6.05" laneDensity="5.88" occupancy="1.71" waitingTime="0.00" timeLoss="28.70" speed="5.45" speedRelative="0.39" departed="0" arrived="0" entered="9" left="7" laneChangedFrom="0" laneChangedTo="0" flow="115.32"/>
        <edge id="-108534913#5" sampledSeconds="108.48" traveltime="11.49" overlapTraveltime="12.06" density="6.32" overlapDensity="6.63" laneDensity="6.32" occupancy="1.96" waitingTime="0.00" timeLoss="34.42" speed="5.44" speedRelative="0.39" departed="0" arrived="0" entered="9" left="9" laneChangedFrom="0" laneChangedTo="0" flow="123.66"/>
        <edge id="-108534913#6" sampledSeconds="33.45" traveltime="0.15" overlapTraveltime="2.26" density="25.34" overlapDensity="476.19" laneDensity="25.34" occupancy="12.58" waitingTime="20.00" timeLoss="27.62" speed="1.19" speedRelative="0.09" departed="5" arrived="0" entered="9" left="14" laneChangedFrom="0" laneChangedTo="0" flow="123.66"/>
        <edge id="-1125729965#0" sampledSeconds="1.85" traveltime="1.69" overlapTraveltime="1.85" density="0.14" overlapDensity="0.16" laneDensity="0.14" occupancy="0.07" waitingTime="0.00" timeLoss="0.00" speed="26.79" speedRelative="1.93" departed="0" arrived="0" entered="1" left="1" laneChangedFrom="0" laneChangedTo="0" flow="13.74"/>
        <edge id="-1125729965#1" sampledSeconds="1.37" traveltime="1.14" overlapTraveltime="1.37" density="0.19" overlapDensity="0.23" laneDensity="0.19" occupancy="0.10" waitingTime="0.00" timeLoss="0.00" speed="20.18" speedRelative="1.45" departed="0" arrived="0" entered="1" left="1" laneChangedFrom="0" laneChangedTo="0" flow="13.74"/>
        <edge id="-1125729966" sampledSeconds="59.58" traveltime="10.93" overlapTraveltime="11.92" density="12.41" overlapDensity="13.53" laneDensity="12.41" occupancy="2.05" waitingTime="21.00" timeLoss="41.28" speed="1.55" speedRelative="0.28" departed="0" arrived="0" entered="5" left="5" laneChangedFrom="0" laneChangedTo="0" flow="68.70"/>
        <edge id="-1125912866" sampledSeconds="613.97" traveltime="10.08" overlapTraveltime="10.43" density="59.84" overlapDensity="62.06" laneDensity="59.84" occupancy="14.20" waitingTime="225.00" timeLoss="403.43" speed="3.85" speedRelative="0.28" departed="0" arrived="0" entered="61" left="56" laneChangedFrom="0" laneChangedTo="0" flow="806.95"/>
        <edge id="-1125912867" sampledSeconds="75.29" traveltime="1.19" overlapTraveltime="1.88" density="56.04" overlapDensity="85.01" laneDensity="56.04" occupancy="15.05" waitingTime="16.00" timeLoss="38.94" speed="3.37" speedRelative="0.24" departed="0" arrived="0" entered="42" left="41" laneChangedFrom="0" laneChangedTo="0" flow="575.16"/>
        <edge id="-1125912916#0" sampledSeconds="31.77" traveltime="1.02" overlapTraveltime="1.34" density="14.66" overlapDensity="19.37" laneDensity="14.66" occupancy="3.34" waitingTime="0.00" timeLoss="11.93" speed="6.58" speedRelative="0.47" departed="0" arrived="0" entered="24" left="23" laneChangedFrom="0" laneChangedTo="0" flow="323.41"/>
        <edge id="-1125912916#1" sampledSeconds="46.17" traveltime="1.41" overlapTraveltime="1.83" density="18.56" overlapDensity="24.31" laneDensity="18.56" occupancy="4.53" waitingTime="0.00" timeLoss="16.30" speed="5.35" speedRelative="0.39" departed="0" arrived="0" entered="25" left="25" laneChangedFrom="0" laneChangedTo="0" flow="343.51"/>
        <edge id="-1125912916#2" sampledSeconds="39.13" traveltime="2.22" overlapTraveltime="2.57" density="9.21" overlapDensity="10.81" laneDensity="9.21" occupancy="2.38" waitingTime="2.00" timeLoss="11.91" speed="6.42" speedRelative="0.46" departed="0" arrived="0" entered="15" left="15" laneChangedFrom="0" laneChangedTo="0" flow="206.11"/>
        <edge id="-1125912916#3" sampledSeconds="84.55" traveltime="5.38" overlapTraveltime="5.69" density="10.37" overlapDensity="11.08" laneDensity="10.37" occupancy="2.63" waitingTime="0.00" timeLoss="33.34" speed="5.59" speedRelative="0.40" departed="5" arrived="0" entered="10" left="15" laneChangedFrom="0" laneChangedTo="0" flow="202.10"/>
        <edge id="-1149027724" sampledSeconds="0.00" departed="0" arrived="0" entered="0" left="0" laneChangedFrom="0" laneChangedTo="0"/>
        <edge id="-1156915072#0" sampledSeconds="588.07" traveltime="14.55" overlapTraveltime="15.66" density="64.09" overlapDensity="67.77" laneDensity="64.09" occupancy="27.28" waitingTime="261.00" timeLoss="465.17" speed="2.39" speedRelative="0.17" departed="2" arrived="0" entered="38" left="37" laneChangedFrom="0" laneChangedTo="0" flow="525.27"/>
        <edge id="-1156915072#1" sampledSeconds="279.16" traveltime="7.54" overlapTraveltime="8.59" density="60.74" overlapDensity="65.53" laneDensity="60.74" occupancy="25.25" waitingTime="156.00" timeLoss="229.85" speed="2.45" speedRelative="0.18" departed="0" arrived="0" entered="35" left="34" laneChangedFrom="0" laneChangedTo="0" flow="471.46"/>
        <edge id="-1156915072#2" sampledSeconds="37.79" traveltime="1.69" overlapTraveltime="2.18" density="10.61" overlapDensity="35.79" laneDensity="10.61" occupancy="8.37" waitingTime="1.00" timeLoss="28.04" speed="3.56" speedRelative="0.26" departed="31" arrived="0" entered="0" left="30" laneChangedFrom="0" laneChangedTo="0" flow="90.95"/>
        <edge id="-1156915074" sampledSeconds="0.00" departed="0" arrived="0" entered="0" left="0" laneChangedFrom="0" laneChangedTo="0"/>
        <edge id="-1163294283" sampledSeconds="58.32" traveltime="11.48" overlapTraveltime="12.19" density="5.53" overlapDensity="5.88" laneDensity="5.53" occupancy="0.92" waitingTime="1.00" timeLoss="25.26" speed="3.24" speedRelative="0.23" departed="5" arrived="0" entered="0" left="5" laneChangedFrom="0" laneChangedTo="0" flow="65.62"/>
        <edge id="-1183389476#0" sampledSeconds="43.70" traveltime="0.07" overlapTraveltime="0.80" density="72.44" overlapDensity="476.19" laneDensity="72.44" occupancy="15.76" waitingTime="8.00" timeLoss="24.68" speed="4.53" speedRelative="0.33" departed="5" arrived="0" entered="57" left="62" laneChangedFrom="0" laneChangedTo="0" flow="783.21"/>
        <edge id="-1183389476#1" sampledSeconds="32.94" traveltime="0.04" overlapTraveltime="0.69" density="43.96" overlapDensity="476.19" laneDensity="43.96" occupancy="11.74" waitingTime="0.00" timeLoss="16.79" speed="5.67" speedRelative="0.41" departed="0" arrived="0" entered="57" left="57" laneChangedFrom="0" laneChangedTo="0" flow="783.21"/>
        <edge id="-1183389476#2" sampledSeconds="35.67" traveltime="0.04" overlapTraveltime="0.86" density="41.96" overlapDensity="476.19" laneDensity="41.96" occupancy="12.85" waitingTime="2.00" timeLoss="19.51" speed="4.35" speedRelative="0.31" departed="0" arrived="0" entered="50" left="50" laneChangedFrom="0" laneChangedTo="0" flow="687.02"/>
        <edge id="-1183389476#3" sampledSeconds="51.04" traveltime="0.90" overlapTraveltime="1.51" density="38.51" overlapDensity="60.88" laneDensity="38.51" occupancy="10.44" waitingTime="10.00" timeLoss="30.11" speed="4.22" speedRelative="0.30" departed="0" arrived="0" entered="36" left="36" laneChangedFrom="0" laneChangedTo="0" flow="494.66"/>
        <edge id="-1183389476#4" sampledSeconds="20.20" traveltime="0.04" overlapTraveltime="0.67" density="28.03" overlapDensity="385.51" laneDensity="28.03" occupancy="7.18" waitingTime="0.00" timeLoss="10.12" speed="5.52" speedRelative="0.40" departed="0" arrived="2" entered="38" left="36" laneChangedFrom="0" laneChangedTo="0" flow="522.14"/>
        <edge id="-1188778649" sampledSeconds="0.00" departed="0" arrived="0" entered="0" left="0" laneChangedFrom="0" laneChangedTo="0"/>
        <edge id="-118915928#1" sampledSeconds="107.66" traveltime="24.28" overlapTraveltime="24.51" density="1.51" overlapDensity="1.52" laneDensity="1.51" occupancy="0.33" waitingTime="0.00" timeLoss="24.13" speed="11.13" speedRelative="0.80" departed="6" arrived="0" entered="0" left="1" laneChangedFrom="0" laneChangedTo="0" flow="60.74"/>
        <edge id="-118915930" sampledSeconds="41.88" traveltime="18.01" overlapTraveltime="21.71" density="6.66" overlapDensity="7.24" laneDensity="6.66" occupancy="3.44" waitingTime="20.00" timeLoss="37.27" speed="1.25" speedRelative="0.09" departed="0" arrived="0" entered="3" left="1" laneChangedFrom="0" laneChangedTo="0" flow="29.39"/>
        <edge id="-118915931#1" sampledSeconds="992.21" traveltime="50.32" overlapTraveltime="51.92" density="60.40" overlapDensity="61.36" laneDensity="60.40" occupancy="23.47" waitingTime="569.00" timeLoss="895.50" speed="1.26" speedRelative="0.09" departed="0" arrived="0" entered="24" left="14" laneChangedFrom="0" laneChangedTo="0" flow="266.66"/>
        <edge id="-118915931#2" sampledSeconds="19.75" traveltime="3.55" overlapTraveltime="3.95" density="1.54" overlapDensity="1.71" laneDensity="1.54" occupancy="0.77" waitingTime="0.00" timeLoss="1.56" speed="12.44" speedRelative="0.90" departed="0" arrived="0" entered="5" left="5" laneChangedFrom="0" laneChangedTo="0" flow="68.70"/>
        <edge id="-118915931#3" sampledSeconds="39.54" traveltime="5.91" overlapTraveltime="6.24" density="2.30" overlapDensity="2.42" laneDensity="2.30" occupancy="0.97" waitingTime="0.00" timeLoss="7.81" speed="10.67" speedRelative="0.77" departed="9" arrived="0" entered="0" left="5" laneChangedFrom="0" laneChangedTo="0" flow="87.42"/>
        <edge id="-118915934" sampledSeconds="0.00" departed="0" arrived="0" entered="0" left="0" laneChangedFrom="0" laneChangedTo="0"/>
        <edge id="-118915940#0" sampledSeconds="10.47" traveltime="3.39" overlapTraveltime="3.59" density="1.13" overlapDensity="1.16" laneDensity="1.13" occupancy="0.24" waitingTime="0.00" timeLoss="2.78" speed="10.16" speedRelative="0.73" departed="0" arrived="3" entered="3" left="0" laneChangedFrom="0" laneChangedTo="0" flow="41.22"/>
        <edge id="-118915940#1" sampledSeconds="4.06" traveltime="3.79" overlapTraveltime="4.26" density="0.43" overlapDensity="0.46" laneDensity="0.43" occupancy="0.20" waitingTime="0.00" timeLoss="1.13" speed="9.06" speedRelative="0.65" departed="0" arrived="1" entered="1" left="0" laneChangedFrom="0" laneChangedTo="0" flow="13.74"/>
        <edge id="-118915964#0" sampledSeconds="79.70" traveltime="7.77" overlapTraveltime="7.97" density="3.26" overlapDensity="3.35" laneDensity="3.26" occupancy="0.72" waitingTime="0.00" timeLoss="12.96" speed="11.67" speedRelative="0.84" departed="0" arrived="0" entered="10" left="10" laneChangedFrom="0" laneChangedTo="0" flow="137.40"/>
        <edge id="-118915964#1" sampledSeconds="50.05" traveltime="5.04" overlapTraveltime="5.24" density="3.78" overlapDensity="3.94" laneDensity="3.78" occupancy="0.85" waitingTime="1.00" timeLoss="15.32" speed="9.67" speedRelative="0.70" departed="10" arrived="0" entered="0" left="10" laneChangedFrom="0" laneChangedTo="0" flow="130.89"/>
        <edge id="-118915966#0" sampledSeconds="45.45" traveltime="4.31" overlapTraveltime="4.58" density="3.04" overlapDensity="3.21" laneDensity="3.04" occupancy="1.08" waitingTime="0.00" timeLoss="4.34" speed="12.58" speedRelative="0.91" departed="0" arrived="10" entered="10" left="0" laneChangedFrom="0" laneChangedTo="0" flow="137.40"/>
        <edge id="-118915966#1" sampledSeconds="64.47" traveltime="4.61" overlapTraveltime="4.96" density="4.98" overlapDensity="5.36" laneDensity="4.98" occupancy="1.59" waitingTime="0.00" timeLoss="17.30" speed="9.92" speedRelative="0.71" departed="0" arrived="0" entered="13" left="13" laneChangedFrom="0" laneChangedTo="0" flow="178.63"/>
        <edge id="-118915966#2" sampledSeconds="62.26" traveltime="3.87" overlapTraveltime="4.45" density="5.93" overlapDensity="6.82" laneDensity="5.93" occupancy="2.05" waitingTime="0.00" timeLoss="17.74" speed="8.60" speedRelative="0.62" departed="0" arrived="0" entered="14" left="14" laneChangedFrom="0" laneChangedTo="0" flow="192.37"/>
        <edge id="-1190968366#0" sampledSeconds="0.00" departed="0" arrived="0" entered="0" left="0" laneChangedFrom="0" laneChangedTo="0"/>
        <edge id="-1190968366#1" sampledSeconds="0.00" departed="0" arrived="0" entered="0" left="0" laneChangedFrom="0" laneChangedTo="0"/>
        <edge id="-1190968366#2" sampledSeconds="0.00" departed="0" arrived="0" entered="0" left="0" laneChangedFrom="0" laneChangedTo="0"/>
        <edge id="-1190968366#3" sampledSeconds="0.00" departed="0" arrived="0" entered="0" left="0" laneChangedFrom="0" laneChangedTo="0"/>
        <edge id="-1190968366#4" sampledSeconds="0.00" departed="0" arrived="0" entered="0" left="0" laneChangedFrom="0" laneChangedTo="0"/>
        <edge id="-1190968366#5" sampledSeconds="0.00" departed="0" arrived="0" entered="0" left="0" laneChangedFrom="0" laneChangedTo="0"/>
        <edge id="-1191966697" sampledSeconds="0.00" departed="0" arrived="0" entered="0" left="0" laneChangedFrom="0" laneChangedTo="0"/>
        <edge id="-1191966698" sampledSeconds="19.19" traveltime="1.98" overlapTraveltime="2.76" density="4.35" overlapDensity="6.01" laneDensity="4.35" occupancy="1.85" waitingTime="0.00" timeLoss="6.86" speed="5.97" speedRelative="0.43" departed="0" arrived="0" entered="7" left="7" laneChangedFrom="0" laneChangedTo="0" flow="96.18"/>