<?xml version="1.0" encoding="UTF-8"?>

<!-- generated on 2026-01-26T09:08:21.468413+07:00 by Eclipse SUMO sumo v1_25_0+0904-59bbc76848e
<sumoConfiguration xmlns:xsi="http://www.w3.org/2001/XMLSchema-instance" xsi:noNamespaceSchemaLocation="http://sumo.dlr.de/xsd/sumoConfiguration.xsd">

    <input>
        <net-file value="maps/CTU_map/osm.net.xml.gz"/>
        <route-files value="maps/CTU_map/osm.bicycle.trips.xml,maps/CTU_map/osm.motorcycle.trips.xml,maps/CTU_map/osm.passenger.trips.xml,maps/CTU_map/osm.pedestrian.rou.xml"/>
        <additional-files value="maps/CTU_map/osm.poly.xml.gz,maps/CTU_map/output.add.xml"/>
    </input>

    <output>
        <tripinfo-output value="maps/CTU_map/tripinfos.xml"/>
        <statistic-output value="maps/CTU_map/stats.xml"/>
    </output>

    <processing>
        <ignore-route-errors value="true"/>
        <scale value="5.0"/>
        <tls.actuated.jam-threshold value="30"/>
    </processing>

    <routing>
        <device.rerouting.adaptation-steps value="18"/>
        <device.rerouting.adaptation-interval value="10"/>
    </routing>

    <report>
        <verbose value="true"/>
        <no-warnings value="true"/>
        <no-step-log value="true"/>
    </report>

    <emissions>
        <device.emissions.probability value="1.0"/>
    </emissions>

    <traci_server>
        <remote-port value="42497"/>
    </traci_server>

    <gui_only>
        <gui-settings-file value="maps/CTU_map/osm.view.xml"/>
        <quit-on-end value="true"/>
        <start value="true"/>
        <delay value="0"/>
    </gui_only>

</sumoConfiguration>
-->

<meandata xmlns:xsi="http://www.w3.org/2001/XMLSchema-instance" xsi:noNamespaceSchemaLocation="http://sumo.dlr.de/xsd/meandata_file.xsd">
    <interval begin="0.00" end="140.00" id="wizard_example">
        <edge id="-1006436797#0" sampledSeconds="50.87" traveltime="10.33" overlapTraveltime="10.62" density="9.09" overlapDensity="9.36" laneDensity="9.09" occupancy="1.48" waitingTime="2.00" timeLoss="17.02" speed="3.80" speedRelative="0.68" departed="5" arrived="0" entered="0" left="5" laneChangedFrom="0" laneChangedTo="0" flow="122.94"/>
        <edge id="-1006436797#1" sampledSeconds="0.00" departed="0" arrived="0" entered="0" left="0" laneChangedFrom="0" laneChangedTo="0"/>
        <edge id="-1006436797#2" sampledSeconds="0.00" departed="0" arrived="0" entered="0" left="0" laneChangedFrom="0" laneChangedTo="0"/>
        <edge id="-1006436797#3" sampledSeconds="0.00" departed="0" arrived="0" entered="0" left="0" laneChangedFrom="0" laneChangedTo="0"/>
        <edge id="-1006436797#4" sampledSeconds="0.00" departed="0" arrived="0" entered="0" left="0" laneChangedFrom="0" laneChangedTo="0"/>
        <edge id="-1006436798" sampledSeconds="47.56" traveltime="10.06" overlapTraveltime="10.41" density="6.76" overlapDensity="6.88" laneDensity="6.76" occupancy="1.07" waitingTime="0.00" timeLoss="6.71" speed="4.90" speedRelative="0.88" departed="0" arrived="0" entered="5" left="2" laneChangedFrom="0" laneChangedTo="0" flow="119.55"/>
        <edge id="-1006436799#0" sampledSeconds="0.00" departed="0" arrived="0" entered="0" left="0" laneChangedFrom="0" laneChangedTo="0"/>
        <edge id="-1006436799#1" sampledSeconds="0.00" departed="0" arrived="0" entered="0" left="0" laneChangedFrom="0" laneChangedTo="0"/>
        <edge id="-1006436802#0" sampledSeconds="0.00" departed="0" arrived="0" entered="0" left="0" laneChangedFrom="0" laneChangedTo="0"/>
        <edge id="-1006436802#1" sampledSeconds="0.00" departed="0" arrived="0" entered="0" left="0" laneChangedFrom="0" laneChangedTo="0"/>
        <edge id="-1006436820" sampledSeconds="0.00" departed="0" arrived="0" entered="0" left="0" laneChangedFrom="0" laneChangedTo="0"/>
        <edge id="-1049200866" sampledSeconds="30.90" traveltime="6.14" overlapTraveltime="6.56" density="5.47" overlapDensity="5.87" laneDensity="5.47" occupancy="1.25" waitingTime="0.00" timeLoss="15.11" speed="6.07" speedRelative="0.44" departed="5" arrived="0" entered="0" left="5" laneChangedFrom="0" laneChangedTo="0" flow="120.71"/>
        <edge id="-1050341200" sampledSeconds="0.00" departed="0" arrived="0" entered="0" left="0" laneChangedFrom="0" laneChangedTo="0"/>
        <edge id="-1060989491" sampledSeconds="0.00" departed="0" arrived="0" entered="0" left="0" laneChangedFrom="0" laneChangedTo="0"/>
        <edge id="-1060989493#0" sampledSeconds="0.00" departed="0" arrived="0" entered="0" left="0" laneChangedFrom="0" laneChangedTo="0"/>
        <edge id="-1060989493#1" sampledSeconds="0.00" departed="0" arrived="0" entered="0" left="0" laneChangedFrom="0" laneChangedTo="0"/>
        <edge id="-1060989493#2" sampledSeconds="22.69" traveltime="4.19" overlapTraveltime="4.54" density="7.35" overlapDensity="7.96" laneDensity="7.35" occupancy="1.18" waitingTime="0.00" timeLoss="3.08" speed="4.84" speedRelative="0.87" departed="0" arrived="0" entered="5" left="5" laneChangedFrom="0" laneChangedTo="0" flow="128.57"/>
        <edge id="-1060989493#3" sampledSeconds="13.85" traveltime="2.46" overlapTraveltime="2.77" density="7.16" overlapDensity="8.06" laneDensity="7.16" occupancy="1.14" waitingTime="0.00" timeLoss="1.63" speed="5.01" speedRelative="0.90" departed="0" arrived="0" entered="5" left="5" laneChangedFrom="0" laneChangedTo="0" flow="128.57"/>
        <edge id="-1060989493#4" sampledSeconds="41.41" traveltime="7.96" overlapTraveltime="8.28" density="7.36" overlapDensity="7.66" laneDensity="7.36" occupancy="1.18" waitingTime="0.00" timeLoss="6.00" speed="4.85" speedRelative="0.87" departed="0" arrived="0" entered="5" left="5" laneChangedFrom="0" laneChangedTo="0" flow="128.57"/>
        <edge id="-1060989493#5" sampledSeconds="11.11" traveltime="1.89" overlapTraveltime="2.22" density="7.34" overlapDensity="8.62" laneDensity="7.34" occupancy="1.18" waitingTime="0.00" timeLoss="1.59" speed="4.86" speedRelative="0.87" departed="0" arrived="0" entered="5" left="5" laneChangedFrom="0" laneChangedTo="0" flow="128.57"/>
        <edge id="-1060989493#7" sampledSeconds="51.47" traveltime="6.25" overlapTraveltime="6.58" density="11.54" overlapDensity="12.00" laneDensity="11.54" occupancy="1.83" waitingTime="0.00" timeLoss="7.01" speed="4.90" speedRelative="0.88" departed="0" arrived="0" entered="9" left="6" laneChangedFrom="0" laneChangedTo="0" flow="203.57"/>
        <edge id="-1060989493#8" sampledSeconds="48.47" traveltime="7.50" overlapTraveltime="7.82" density="8.75" overlapDensity="9.04" laneDensity="8.75" occupancy="1.39" waitingTime="0.00" timeLoss="5.19" speed="5.10" speedRelative="0.92" departed="0" arrived="0" entered="7" left="5" laneChangedFrom="0" laneChangedTo="0" flow="160.74"/>
        <edge id="-1060989493#9" sampledSeconds="7.27" traveltime="2.75" overlapTraveltime="3.46" density="5.31" overlapDensity="6.60" laneDensity="5.31" occupancy="0.90" waitingTime="0.00" timeLoss="3.78" speed="2.74" speedRelative="0.49" departed="0" arrived="0" entered="3" left="2" laneChangedFrom="0" laneChangedTo="0" flow="54.58"/>
        <edge id="-1060989494#0" sampledSeconds="6.45" traveltime="1.26" overlapTraveltime="1.59" density="6.24" overlapDensity="7.83" laneDensity="6.24" occupancy="0.99" waitingTime="0.00" timeLoss="1.09" speed="4.71" speedRelative="0.85" departed="0" arrived="0" entered="5" left="4" laneChangedFrom="0" laneChangedTo="0" flow="104.68"/>
        <edge id="-1060989494#1" sampledSeconds="82.46" traveltime="16.18" overlapTraveltime="16.49" density="7.11" overlapDensity="7.24" laneDensity="7.11" occupancy="1.14" waitingTime="0.00" timeLoss="10.19" speed="5.03" speedRelative="0.90" departed="0" arrived="0" entered="5" left="5" laneChangedFrom="0" laneChangedTo="0" flow="128.57"/>
        <edge id="-1060989494#2" sampledSeconds="38.20" traveltime="7.30" overlapTraveltime="7.64" density="7.36" overlapDensity="7.70" laneDensity="7.36" occupancy="1.18" waitingTime="0.00" timeLoss="5.92" speed="4.85" speedRelative="0.87" departed="0" arrived="0" entered="5" left="5" laneChangedFrom="0" laneChangedTo="0" flow="128.57"/>
        <edge id="-1060989494#3" sampledSeconds="0.00" departed="0" arrived="0" entered="0" left="0" laneChangedFrom="0" laneChangedTo="0"/>
        <edge id="-1060989495#0" sampledSeconds="16.29" traveltime="2.95" overlapTraveltime="3.26" density="6.67" overlapDensity="7.35" laneDensity="6.67" occupancy="1.07" waitingTime="0.00" timeLoss="0.88" speed="5.35" speedRelative="0.96" departed="0" arrived="0" entered="5" left="5" laneChangedFrom="0" laneChangedTo="0" flow="128.57"/>
        <edge id="-1060989495#1" sampledSeconds="13.84" traveltime="2.43" overlapTraveltime="2.77" density="7.95" overlapDensity="9.07" laneDensity="7.95" occupancy="1.28" waitingTime="0.00" timeLoss="2.78" speed="4.51" speedRelative="0.81" departed="0" arrived="0" entered="5" left="5" laneChangedFrom="0" laneChangedTo="0" flow="128.57"/>
        <edge id="-1060989496#0" sampledSeconds="0.00" departed="0" arrived="0" entered="0" left="0" laneChangedFrom="0" laneChangedTo="0"/>
        <edge id="-1060989496#1" sampledSeconds="0.00" departed="0" arrived="0" entered="0" left="0" laneChangedFrom="0" laneChangedTo="0"/>
        <edge id="-1060989496#2" sampledSeconds="0.00" departed="0" arrived="0" entered="0" left="0" laneChangedFrom="0" laneChangedTo="0"/>
        <edge id="-1060989496#3" sampledSeconds="0.00" departed="0" arrived="0" entered="0" left="0" laneChangedFrom="0" laneChangedTo="0"/>
        <edge id="-1060989496#4" sampledSeconds="0.00" departed="0" arrived="0" entered="0" left="0" laneChangedFrom="0" laneChangedTo="0"/>
        <edge id="-1061007736#0" sampledSeconds="0.00" departed="0" arrived="0" entered="0" left="0" laneChangedFrom="0" laneChangedTo="0"/>
        <edge id="-1061007736#1" sampledSeconds="0.00" departed="0" arrived="0" entered="0" left="0" laneChangedFrom="0" laneChangedTo="0"/>
        <edge id="-1061007736#2" sampledSeconds="0.00" departed="0" arrived="0" entered="0" left="0" laneChangedFrom="0" laneChangedTo="0"/>
        <edge id="-1061007736#3" sampledSeconds="0.00" departed="0" arrived="0" entered="0" left="0" laneChangedFrom="0" laneChangedTo="0"/>
        <edge id="-1061007736#4" sampledSeconds="0.00" departed="0" arrived="0" entered="0" left="0" laneChangedFrom="0" laneChangedTo="0"/>
        <edge id="-1061007736#5" sampledSeconds="0.00" departed="0" arrived="0" entered="0" left="0" laneChangedFrom="0" laneChangedTo="0"/>
        <edge id="-1061007736#6" sampledSeconds="0.00" departed="0" arrived="0" entered="0" left="0" laneChangedFrom="0" laneChangedTo="0"/>
        <edge id="-1061007736#7" sampledSeconds="0.00" departed="0" arrived="0" entered="0" left="0" laneChangedFrom="0" laneChangedTo="0"/>
        <edge id="-1061007736#8" sampledSeconds="0.00" departed="0" arrived="0" entered="0" left="0" laneChangedFrom="0" laneChangedTo="0"/>
        <edge id="-1061007736#9" sampledSeconds="0.00" departed="0" arrived="0" entered="0" left="0" laneChangedFrom="0" laneChangedTo="0"/>
        <edge id="-1061341066" sampledSeconds="0.00" departed="0" arrived="0" entered="0" left="0" laneChangedFrom="0" laneChangedTo="0"/>
        <edge id="-1061341067#0" sampledSeconds="0.00" departed="0" arrived="0" entered="0" left="0" laneChangedFrom="0" laneChangedTo="0"/>
        <edge id="-1061341067#1" sampledSeconds="0.00" departed="0" arrived="0" entered="0" left="0" laneChangedFrom="0" laneChangedTo="0"/>
        <edge id="-1081677329" sampledSeconds="0.00" departed="0" arrived="0" entered="0" left="0" laneChangedFrom="0" laneChangedTo="0"/>
        <edge id="-1081677330" sampledSeconds="0.00" departed="0" arrived="0" entered="0" left="0" laneChangedFrom="0" laneChangedTo="0"/>
        <edge id="-1081681931" sampledSeconds="0.00" departed="0" arrived="0" entered="0" left="0" laneChangedFrom="0" laneChangedTo="0"/>
        <edge id="-108179183#0" sampledSeconds="0.00" departed="0" arrived="0" entered="0" left="0" laneChangedFrom="0" laneChangedTo="0"/>
        <edge id="-108179183#1" sampledSeconds="0.00" departed="0" arrived="0" entered="0" left="0" laneChangedFrom="0" laneChangedTo="0"/>
        <edge id="-108179183#2" sampledSeconds="0.00" departed="0" arrived="0" entered="0" left="0" laneChangedFrom="0" laneChangedTo="0"/>
        <edge id="-108179314" sampledSeconds="0.00" departed="0" arrived="0" entered="0" left="0" laneChangedFrom="0" laneChangedTo="0"/>
        <edge id="-108534913#0" sampledSeconds="0.00" departed="0" arrived="0" entered="0" left="0" laneChangedFrom="0" laneChangedTo="0"/>
        <edge id="-108534913#1" sampledSeconds="0.00" departed="0" arrived="0" entered="0" left="0" laneChangedFrom="0" laneChangedTo="0"/>
        <edge id="-108534913#2" sampledSeconds="0.58" traveltime="17.66" overlapTraveltime="17.97" density="0.04" overlapDensity="0.04" laneDensity="0.04" occupancy="0.01" waitingTime="0.00" timeLoss="0.05" speed="5.20" speedRelative="0.37" departed="0" arrived="0" entered="1" left="0" laneChangedFrom="0" laneChangedTo="0" flow="0.84"/>
        <edge id="-108534913#3" sampledSeconds="4.48" traveltime="4.20" overlapTraveltime="4.48" density="1.30" overlapDensity="1.39" laneDensity="1.30" occupancy="0.21" waitingTime="0.00" timeLoss="0.17" speed="5.50" speedRelative="0.40" departed="0" arrived="0" entered="1" left="1" laneChangedFrom="0" laneChangedTo="0" flow="25.71"/>
        <edge id="-108534913#4" sampledSeconds="25.14" traveltime="12.26" overlapTraveltime="12.57" density="2.76" overlapDensity="2.83" laneDensity="2.76" occupancy="0.44" waitingTime="0.00" timeLoss="1.54" speed="5.18" speedRelative="0.37" departed="0" arrived="0" entered="2" left="2" laneChangedFrom="0" laneChangedTo="0" flow="51.43"/>
        <edge id="-108534913#5" sampledSeconds="24.76" traveltime="12.08" overlapTraveltime="12.38" density="2.76" overlapDensity="2.83" laneDensity="2.76" occupancy="0.44" waitingTime="0.00" timeLoss="1.53" speed="5.17" speedRelative="0.37" departed="0" arrived="0" entered="2" left="2" laneChangedFrom="0" laneChangedTo="0" flow="51.43"/>
        <edge id="-108534913#6" sampledSeconds="0.70" traveltime="0.04" overlapTraveltime="0.35" density="2.79" overlapDensity="25.11" laneDensity="2.79" occupancy="0.45" waitingTime="0.00" timeLoss="0.05" speed="5.12" speedRelative="0.37" departed="0" arrived="0" entered="2" left="2" laneChangedFrom="0" laneChangedTo="0" flow="51.43"/>
        <edge id="-1125729965#0" sampledSeconds="0.00" departed="0" arrived="0" entered="0" left="0" laneChangedFrom="0" laneChangedTo="0"/>
        <edge id="-1125729965#1" sampledSeconds="0.00" departed="0" arrived="0" entered="0" left="0" laneChangedFrom="0" laneChangedTo="0"/>
        <edge id="-1125729966" sampledSeconds="0.00" departed="0" arrived="0" entered="0" left="0" laneChangedFrom="0" laneChangedTo="0"/>
        <edge id="-1125912866" sampledSeconds="134.85" traveltime="5.33" overlapTraveltime="5.64" density="24.15" overlapDensity="25.51" laneDensity="24.15" occupancy="5.12" waitingTime="0.00" timeLoss="46.86" speed="7.08" speedRelative="0.51" departed="0" arrived="0" entered="25" left="23" laneChangedFrom="0" laneChangedTo="0" flow="615.80"/>
        <edge id="-1125912867" sampledSeconds="17.39" traveltime="0.74" overlapTraveltime="1.24" density="21.94" overlapDensity="36.76" laneDensity="21.94" occupancy="5.04" waitingTime="0.00" timeLoss="5.53" speed="4.64" speedRelative="0.33" departed="0" arrived="0" entered="14" left="14" laneChangedFrom="0" laneChangedTo="0" flow="360.00"/>
        <edge id="-1125912916#0" sampledSeconds="5.17" traveltime="0.83" overlapTraveltime="1.03" density="4.72" overlapDensity="5.90" laneDensity="4.72" occupancy="0.94" waitingTime="0.00" timeLoss="2.16" speed="8.18" speedRelative="0.59" departed="0" arrived="0" entered="5" left="5" laneChangedFrom="0" laneChangedTo="0" flow="128.57"/>
        <edge id="-1125912916#1" sampledSeconds="10.47" traveltime="1.70" overlapTraveltime="2.09" density="8.37" overlapDensity="10.32" laneDensity="8.37" occupancy="1.78" waitingTime="1.00" timeLoss="6.09" speed="4.51" speedRelative="0.32" departed="0" arrived="0" entered="5" left="5" laneChangedFrom="0" laneChangedTo="0" flow="128.57"/>
        <edge id="-1125912916#2" sampledSeconds="0.00" departed="0" arrived="0" entered="0" left="0" laneChangedFrom="0" laneChangedTo="0"/>
        <edge id="-1125912916#3" sampledSeconds="0.00" departed="0" arrived="0" entered="0" left="0" laneChangedFrom="0" laneChangedTo="0"/>
        <edge id="-1149027724" sampledSeconds="0.00" departed="0" arrived="0" entered="0" left="0" laneChangedFrom="0" laneChangedTo="0"/>
        <edge id="-1156915072#0" sampledSeconds="104.13" traveltime="5.44" overlapTraveltime="6.21" density="20.14" overlapDensity="22.46" laneDensity="20.14" occupancy="7.22" waitingTime="2.00" timeLoss="51.89" speed="5.91" speedRelative="0.43" departed="0" arrived="0" entered="18" left="15" laneChangedFrom="0" laneChangedTo="0" flow="441.08"/>
        <edge id="-1156915072#1" sampledSeconds="29.95" traveltime="1.50" overlapTraveltime="1.78" density="11.24" overlapDensity="13.16" laneDensity="11.24" occupancy="3.36" waitingTime="0.00" timeLoss="6.15" speed="10.91" speedRelative="0.79" departed="0" arrived="0" entered="18" left="16" laneChangedFrom="0" laneChangedTo="0" flow="438.72"/>
        <edge id="-1156915072#2" sampledSeconds="16.97" traveltime="1.08" overlapTraveltime="1.52" density="11.53" overlapDensity="30.08" laneDensity="11.53" occupancy="6.26" waitingTime="0.00" timeLoss="11.19" speed="4.69" speedRelative="0.34" departed="19" arrived="0" entered="0" left="19" laneChangedFrom="0" laneChangedTo="0" flow="154.54"/>
        <edge id="-1156915074" sampledSeconds="0.00" departed="0" arrived="0" entered="0" left="0" laneChangedFrom="0" laneChangedTo="0"/>
        <edge id="-1163294283" sampledSeconds="63.30" traveltime="12.49" overlapTraveltime="13.23" density="11.26" overlapDensity="11.95" laneDensity="11.26" occupancy="1.86" waitingTime="2.00" timeLoss="30.24" speed="2.98" speedRelative="0.21" departed="5" arrived="0" entered="0" left="5" laneChangedFrom="0" laneChangedTo="0" flow="122.80"/>
        <edge id="-1183389476#0" sampledSeconds="26.09" traveltime="0.14" overlapTraveltime="1.06" density="102.84" overlapDensity="476.19" laneDensity="102.84" occupancy="17.42" waitingTime="2.28" timeLoss="16.04" speed="3.74" speedRelative="0.27" departed="5" arrived="0" entered="21" left="26" laneChangedFrom="0" laneChangedTo="0" flow="540.00"/>
        <edge id="-1183389476#1" sampledSeconds="20.09" traveltime="0.07" overlapTraveltime="1.05" density="50.67" overlapDensity="476.19" laneDensity="50.67" occupancy="13.49" waitingTime="0.00" timeLoss="12.73" speed="4.31" speedRelative="0.31" departed="0" arrived="0" entered="21" left="21" laneChangedFrom="0" laneChangedTo="0" flow="540.00"/>
        <edge id="-1183389476#2" sampledSeconds="15.47" traveltime="0.17" overlapTraveltime="1.54" density="78.42" overlapDensity="476.19" laneDensity="78.42" occupancy="9.65" waitingTime="1.40" timeLoss="10.55" speed="3.01" speedRelative="0.22" departed="0" arrived="0" entered="13" left="13" laneChangedFrom="0" laneChangedTo="0" flow="334.29"/>
        <edge id="-1183389476#3" sampledSeconds="34.61" traveltime="1.90" overlapTraveltime="3.49" density="49.82" overlapDensity="77.26" laneDensity="49.82" occupancy="15.16" waitingTime="6.00" timeLoss="26.20" speed="2.18" speedRelative="0.16" departed="0" arrived="0" entered="12" left="11" laneChangedFrom="0" laneChangedTo="0" flow="301.79"/>
        <edge id="-1183389476#4" sampledSeconds="14.12" traveltime="0.07" overlapTraveltime="1.31" density="30.54" overlapDensity="476.19" laneDensity="30.54" occupancy="9.58" waitingTime="0.00" timeLoss="9.41" speed="3.58" speedRelative="0.26" departed="0" arrived="0" entered="13" left="13" laneChangedFrom="0" laneChangedTo="0" flow="334.29"/>
        <edge id="-1188778649" sampledSeconds="0.00" departed="0" arrived="0" entered="0" left="0" laneChangedFrom="0" laneChangedTo="0"/>
        <edge id="-118915928#1" sampledSeconds="0.00" departed="0" arrived="0" entered="0" left="0" laneChangedFrom="0" laneChangedTo="0"/>
        <edge id="-118915930" sampledSeconds="0.00" departed="0" arrived="0" entered="0" left="0" laneChangedFrom="0" laneChangedTo="0"/>
        <edge id="-118915931#1" sampledSeconds="127.22" traveltime="23.93" overlapTraveltime="25.44" density="13.85" overlapDensity="14.72" laneDensity="13.85" occupancy="7.08" waitingTime="38.00" timeLoss="100.30" speed="2.62" speedRelative="0.19" departed="0" arrived="0" entered="5" left="5" laneChangedFrom="0" laneChangedTo="0" flow="128.57"/>
        <edge id="-118915931#2" sampledSeconds="0.00" departed="0" arrived="0" entered="0" left="0" laneChangedFrom="0" laneChangedTo="0"/>
        <edge id="-118915931#3" sampledSeconds="0.00" departed="0" arrived="0" entered="0" left="0" laneChangedFrom="0" laneChangedTo="0"/>
        <edge id="-118915934" sampledSeconds="0.00" departed="0" arrived="0" entered="0" left="0" laneChangedFrom="0" laneChangedTo="0"/>
        <edge id="-118915940#0" sampledSeconds="0.00" departed="0" arrived="0" entered="0" left="0" laneChangedFrom="0" laneChangedTo="0"/>
        <edge id="-118915940#1" sampledSeconds="0.00" departed="0" arrived="0" entered="0" left="0" laneChangedFrom="0" laneChangedTo="0"/>
        <edge id="-118915964#0" sampledSeconds="27.40" traveltime="7.31" overlapTraveltime="7.47" density="2.13" overlapDensity="2.15" laneDensity="2.13" occupancy="0.46" waitingTime="0.00" timeLoss="4.79" speed="12.45" speedRelative="0.90" departed="0" arrived="0" entered="5" left="2" laneChangedFrom="0" laneChangedTo="0" flow="95.29"/>
        <edge id="-118915964#1" sampledSeconds="23.51" traveltime="4.75" overlapTraveltime="4.93" density="3.33" overlapDensity="3.46" laneDensity="3.33" occupancy="0.75" waitingTime="0.00" timeLoss="7.10" speed="10.30" speedRelative="0.74" departed="5" arrived="0" entered="0" left="5" laneChangedFrom="0" laneChangedTo="0" flow="122.48"/>
        <edge id="-118915966#0" sampledSeconds="10.88" traveltime="4.37" overlapTraveltime="4.75" density="1.39" overlapDensity="1.44" laneDensity="1.39" occupancy="0.67" waitingTime="0.00" timeLoss="1.16" speed="12.43" speedRelative="0.89" departed="0" arrived="1" entered="3" left="0" laneChangedFrom="0" laneChangedTo="0" flow="61.94"/>
        <edge id="-118915966#1" sampledSeconds="21.95" traveltime="4.56" overlapTraveltime="4.97" density="3.17" overlapDensity="3.41" laneDensity="3.17" occupancy="1.50" waitingTime="0.00" timeLoss="6.08" speed="10.25" speedRelative="0.74" departed="0" arrived="0" entered="5" left="4" laneChangedFrom="0" laneChangedTo="0" flow="114.74"/>
        <edge id="-118915966#2" sampledSeconds="30.08" traveltime="4.24" overlapTraveltime="5.01" density="5.21" overlapDensity="6.16" laneDensity="5.21" occupancy="2.41" waitingTime="0.00" timeLoss="10.24" speed="7.86" speedRelative="0.57" departed="0" arrived="0" entered="6" left="6" laneChangedFrom="0" laneChangedTo="0" flow="154.29"/>
        <edge id="-1190968366#0" sampledSeconds="0.00" departed="0" arrived="0" entered="0" left="0" laneChangedFrom="0" laneChangedTo="0"/>
        <edge id="-1190968366#1" sampledSeconds="0.00" departed="0" arrived="0" entered="0" left="0" laneChangedFrom="0" laneChangedTo="0"/>
        <edge id="-1190968366#2" sampledSeconds="0.00" departed="0" arrived="0" entered="0" left="0" laneChangedFrom="0" laneChangedTo="0"/>
        <edge id="-1190968366#3" sampledSeconds="0.00" departed="0" arrived="0" entered="0" left="0" laneChangedFrom="0" laneChangedTo="0"/>
        <edge id="-1190968366#4" sampledSeconds="0.00" departed="0" arrived="0" entered="0" left="0" laneChangedFrom="0" laneChangedTo="0"/>
        <edge id="-1190968366#5" sampledSeconds="0.00" departed="0" arrived="0" entered="0" left="0" laneChangedFrom="0" laneChangedTo="0"/>
        <edge id="-1191966697" sampledSeconds="0.00" departed="0" arrived="0" entered="0" left="0" laneChangedFrom="0" laneChangedTo="0"/>
        <edge id="-1191966698" sampledSeconds="0.00" departed="0" arrived="0" entered="0" left="0" laneChangedFrom="0" laneChangedTo="0"/>
        <edge id="-1191966699" sampledSeconds="0.00" departed="0" arrived="0" entered="0" left="0" laneChangedFrom="0" laneChangedTo="0"/>
        <edge id="-1191966700" sampledSeconds="5.09" traveltime="0.69" overlapTraveltime="1.02" density="7.90" overlapDensity="11.69" laneDensity="7.90" occupancy="1.22" waitingTime="0.00" timeLoss="0.98" speed="4.63" speedRelative="0.33" departed="0" arrived="0" entered="5" left="5" laneChangedFrom="0" laneChangedTo="0" flow="128.57"/>
        <edge id="-1192037622" sampledSeconds="0.00" departed="0" arrived="0" entered="0" left="0" laneChangedFrom="0" laneChangedTo="0"/>
        <edge id="-1192037623#0" sampledSeconds="0.00" departed="0" arrived="0" entered="0" left="0" laneChangedFrom="0" laneChangedTo="0"/>
        <edge id="-1192037623#1" sampledSeconds="28.72" traveltime="5.65" overlapTraveltime="6.00" density="3.68" overlapDensity="3.92" laneDensity="3.68" occupancy="0.84" waitingTime="0.00" timeLoss="10.03" speed="9.10" speedRelative="0.65" departed="5" arrived="0" entered="0" left="5" laneChangedFrom="0" laneChangedTo="0" flow="122.92"/>
        <edge id="-1192335102" sampledSeconds="29.29" traveltime="3.57" overlapTraveltime="4.54" density="17.33" overlapDensity="20.37" laneDensity="17.33" occupancy="5.88" waitingTime="4.00" timeLoss="21.92" speed="3.00" speedRelative="0.22" departed="0" arrived="0" entered="7" left="6" laneChangedFrom="0" laneChangedTo="0" flow="179.75"/>
        <edge id="-119276337#0" sampledSeconds="76.28" traveltime="7.67" overlapTraveltime="7.85" density="6.84" overlapDensity="7.02" laneDensity="6.84" occupancy="1.52" waitingTime="0.00" timeLoss="22.17" speed="10.17" speedRelative="0.73" departed="10" arrived="0" entered="0" left="10" laneChangedFrom="0" laneChangedTo="0" flow="249.53"/>
        <edge id="-119276337#1" sampledSeconds="0.00" departed="0" arrived="0" entered="0" left="0" laneChangedFrom="0" laneChangedTo="0"/>
        <edge id="-119276337#2" sampledSeconds="0.00" departed="0" arrived="0" entered="0" left="0" laneChangedFrom="0" laneChangedTo="0"/>
        <edge id="-119276349#1" sampledSeconds="0.00" departed="0" arrived="0" entered="0" left="0" laneChangedFrom="0" laneChangedTo="0"/>
        <edge id="-119276349#10" sampledSeconds="0.00" departed="0" arrived="0" entered="0" left="0" laneChangedFrom="0" laneChangedTo="0"/>
        <edge id="-119276349#11" sampledSeconds="0.00" departed="0" arrived="0" entered="0" left="0" laneChangedFrom="0" laneChangedTo="0"/>
        <edge id="-119276349#12" sampledSeconds="0.00" departed="0" arrived="0" entered="0" left="0" laneChangedFrom="0" laneChangedTo="0"/>
        <edge id="-119276349#2" sampledSeconds="0.00" departed="0" arrived="0" entered="0" left="0" laneChangedFrom="0" laneChangedTo="0"/>
        <edge id="-119276349#3" sampledSeconds="0.00" departed="0" arrived="0" entered="0" left="0" laneChangedFrom="0" laneChangedTo="0"/>
        <edge id="-119276349#4" sampledSeconds="0.00" departed="0" arrived="0" entered="0" left="0" laneChangedFrom="0" laneChangedTo="0"/>
        <edge id="-119276349#5" sampledSeconds="0.00" departed="0" arrived="0" entered="0" left="0" laneChangedFrom="0" laneChangedTo="0"/>
        <edge id="-119276349#6" sampledSeconds="0.00" departed="0" arrived="0" entered="0" left="0" laneChangedFrom="0" laneChangedTo="0"/>
        <edge id="-119276349#7" sampledSeconds="0.00" departed="0" arrived="0" entered="0" left="0" laneChangedFrom="0" laneChangedTo="0"/>
        <edge id="-119276349#8" sampledSeconds="0.00" departed="0" arrived="0" entered="0" left="0" laneChangedFrom="0" laneChangedTo="0"/>
        <edge id="-119276349#9" sampledSeconds="0.00" departed="0" arrived="0" entered="0" left="0" laneChangedFrom="0" laneChangedTo="0"/>
        <edge id="-119276358#0" sampledSeconds="0.00" departed="0" arrived="0" entered="0" left="0" laneChangedFrom="0" laneChangedTo="0"/>
        <edge id="-119276358#1" sampledSeconds="0.00" departed="0" arrived="0" entered="0" left="0" laneChangedFrom="0" laneChangedTo="0"/>
        <edge id="-119276358#2" sampledSeconds="0.00" departed="0" arrived="0" entered="0" left="0" laneChangedFrom="0" laneChangedTo="0"/>
        <edge id="-119276359" sampledSeconds="0.00" departed="0" arrived="0" entered="0" left="0" laneChangedFrom="0" laneChangedTo="0"/>
        <edge id="-119276362" sampledSeconds="207.55" traveltime="20.77" overlapTraveltime="20.97" density="6.57" overlapDensity="6.64" laneDensity="6.57" occupancy="1.45" waitingTime="0.00" timeLoss="44.21" speed="10.76" speedRelative="0.77" departed="10" arrived="0" entered="0" left="10" laneChangedFrom="0" laneChangedTo="0" flow="254.50"/>
        <edge id="-1211796276" sampledSeconds="175.68" traveltime="14.38" overlapTraveltime="14.88" density="14.05" overlapDensity="14.31" laneDensity="14.05" occupancy="4.79" waitingTime="58.00" timeLoss="97.86" speed="6.13" speedRelative="0.44" departed="0" arrived="0" entered="15" left="7" laneChangedFrom="0" laneChangedTo="0" flow="308.49"/>
        <edge id="-1212629516" sampledSeconds="0.00" departed="0" arrived="0" entered="0" left="0" laneChangedFrom="0" laneChangedTo="0"/>
        <edge id="-1215566847#0" sampledSeconds="0.00" departed="0" arrived="0" entered="0" left="0" laneChangedFrom="0" laneChangedTo="0"/>
        <edge id="-1215566847#1" sampledSeconds="0.00" departed="0" arrived="0" entered="0" left="0" laneChangedFrom="0" laneChangedTo="0"/>
        <edge id="-1215566847#2" sampledSeconds="0.00" departed="0" arrived="0" entered="0" left="0" laneChangedFrom="0" laneChangedTo="0"/>
        <edge id="-1215566847#3" sampledSeconds="0.00" departed="0" arrived="0" entered="0" left="0" laneChangedFrom="0" laneChangedTo="0"/>
        <edge id="-1215566849" sampledSeconds="0.00" departed="0" arrived="0" entered="0" left="0" laneChangedFrom="0" laneChangedTo="0"/>