<?xml version="1.0" encoding="UTF-8"?>

<!-- generated on 2026-02-06T18:12:36.295699+07:00 by Eclipse SUMO sumo v1_25_0+0904-59bbc76848e
<sumoConfiguration xmlns:xsi="http://www.w3.org/2001/XMLSchema-instance" xsi:noNamespaceSchemaLocation="http://sumo.dlr.de/xsd/sumoConfiguration.xsd">

    <input>
        <net-file value="maps/CTU_map/osm.net.xml.gz"/>
        <route-files value="maps/CTU_map/osm.bicycle.trips.xml,maps/CTU_map/osm.motorcycle.trips.xml,maps/CTU_map/osm.passenger.trips.xml,maps/CTU_map/osm.pedestrian.rou.xml"/>
        <additional-files value="maps/CTU_map/osm.poly.xml.gz,maps/CTU_map/output.add.xml"/>
    </input>

    <output>
        <tripinfo-output value="maps/CTU_map/tripinfos.xml"/>
        <statistic-output value="maps/CTU_map/stats.xml"/>
    </output>

    <processing>
        <ignore-route-errors value="true"/>
        <scale value="7.0"/>
        <tls.actuated.jam-threshold value="30"/>
    </processing>

    <routing>
        <device.rerouting.adaptation-steps value="18"/>
        <device.rerouting.adaptation-interval value="10"/>
    </routing>

    <report>
        <verbose value="true"/>
        <no-warnings value="true"/>
        <no-step-log value="true"/>
    </report>

    <emissions>
        <device.emissions.probability value="1.0"/>
    </emissions>

    <traci_server>
        <remote-port value="38287"/>
    </traci_server>

    <gui_only>
        <gui-settings-file value="maps/CTU_map/osm.view.xml"/>
        <quit-on-end value="true"/>
        <start value="true"/>
        <delay value="20"/>
    </gui_only>

</sumoConfiguration>
-->

<meandata xmlns:xsi="http://www.w3.org/2001/XMLSchema-instance" xsi:noNamespaceSchemaLocation="http://sumo.dlr.de/xsd/meandata_file.xsd">
    <interval begin="0.00" end="190.00" id="wizard_example">
        <edge id="-1006436797#0" sampledSeconds="72.20" traveltime="10.45" overlapTraveltime="10.77" density="9.49" overlapDensity="9.79" laneDensity="9.49" occupancy="1.54" waitingTime="1.00" timeLoss="22.33" speed="3.75" speedRelative="0.68" departed="7" arrived="0" entered="0" left="7" laneChangedFrom="0" laneChangedTo="0" flow="126.82"/>
        <edge id="-1006436797#1" sampledSeconds="0.00" departed="0" arrived="0" entered="0" left="0" laneChangedFrom="0" laneChangedTo="0"/>
        <edge id="-1006436797#2" sampledSeconds="0.00" departed="0" arrived="0" entered="0" left="0" laneChangedFrom="0" laneChangedTo="0"/>
        <edge id="-1006436797#3" sampledSeconds="0.00" departed="0" arrived="0" entered="0" left="0" laneChangedFrom="0" laneChangedTo="0"/>
        <edge id="-1006436797#4" sampledSeconds="0.00" departed="0" arrived="0" entered="0" left="0" laneChangedFrom="0" laneChangedTo="0"/>
        <edge id="-1006436798" sampledSeconds="74.04" traveltime="10.22" overlapTraveltime="10.58" density="7.63" overlapDensity="7.89" laneDensity="7.63" occupancy="1.22" waitingTime="0.00" timeLoss="7.96" speed="4.82" speedRelative="0.87" departed="0" arrived="0" entered="7" left="7" laneChangedFrom="0" laneChangedTo="0" flow="132.63"/>
        <edge id="-1006436799#0" sampledSeconds="0.00" departed="0" arrived="0" entered="0" left="0" laneChangedFrom="0" laneChangedTo="0"/>
        <edge id="-1006436799#1" sampledSeconds="0.00" departed="0" arrived="0" entered="0" left="0" laneChangedFrom="0" laneChangedTo="0"/>
        <edge id="-1006436802#0" sampledSeconds="0.00" departed="0" arrived="0" entered="0" left="0" laneChangedFrom="0" laneChangedTo="0"/>
        <edge id="-1006436802#1" sampledSeconds="0.00" departed="0" arrived="0" entered="0" left="0" laneChangedFrom="0" laneChangedTo="0"/>
        <edge id="-1006436820" sampledSeconds="0.00" departed="0" arrived="0" entered="0" left="0" laneChangedFrom="0" laneChangedTo="0"/>
        <edge id="-1049200866" sampledSeconds="96.61" traveltime="7.33" overlapTraveltime="7.92" density="12.62" overlapDensity="13.52" laneDensity="12.62" occupancy="2.95" waitingTime="0.00" timeLoss="55.75" speed="5.03" speedRelative="0.36" departed="15" arrived="0" entered="0" left="11" laneChangedFrom="0" laneChangedTo="0" flow="232.91"/>
        <edge id="-1050341200" sampledSeconds="0.00" departed="0" arrived="0" entered="0" left="0" laneChangedFrom="0" laneChangedTo="0"/>
        <edge id="-1060989491" sampledSeconds="0.00" departed="0" arrived="0" entered="0" left="0" laneChangedFrom="0" laneChangedTo="0"/>
        <edge id="-1060989493#0" sampledSeconds="44.91" traveltime="7.16" overlapTraveltime="7.47" density="6.13" overlapDensity="6.35" laneDensity="6.13" occupancy="0.97" waitingTime="0.00" timeLoss="4.34" speed="5.19" speedRelative="0.93" departed="0" arrived="0" entered="8" left="5" laneChangedFrom="0" laneChangedTo="0" flow="114.73"/>
        <edge id="-1060989493#1" sampledSeconds="81.08" traveltime="7.38" overlapTraveltime="7.70" density="10.74" overlapDensity="11.14" laneDensity="10.74" occupancy="1.71" waitingTime="0.00" timeLoss="7.70" speed="5.18" speedRelative="0.93" departed="0" arrived="0" entered="11" left="9" laneChangedFrom="0" laneChangedTo="0" flow="200.71"/>
        <edge id="-1060989493#2" sampledSeconds="65.02" traveltime="4.30" overlapTraveltime="4.64" density="15.54" overlapDensity="16.80" laneDensity="15.54" occupancy="2.50" waitingTime="0.00" timeLoss="9.63" speed="4.73" speedRelative="0.85" departed="0" arrived="0" entered="14" left="14" laneChangedFrom="0" laneChangedTo="0" flow="265.26"/>
        <edge id="-1060989493#3" sampledSeconds="38.17" traveltime="2.41" overlapTraveltime="2.73" density="14.47" overlapDensity="16.37" laneDensity="14.47" occupancy="2.31" waitingTime="0.00" timeLoss="3.50" speed="5.09" speedRelative="0.91" departed="0" arrived="0" entered="14" left="14" laneChangedFrom="0" laneChangedTo="0" flow="265.26"/>
        <edge id="-1060989493#4" sampledSeconds="117.62" traveltime="7.96" overlapTraveltime="8.29" density="15.41" overlapDensity="16.03" laneDensity="15.41" occupancy="2.46" waitingTime="0.00" timeLoss="15.80" speed="4.85" speedRelative="0.87" departed="0" arrived="0" entered="15" left="14" laneChangedFrom="0" laneChangedTo="0" flow="268.92"/>
        <edge id="-1060989493#5" sampledSeconds="47.20" traveltime="1.87" overlapTraveltime="2.21" density="22.85" overlapDensity="26.97" laneDensity="22.85" occupancy="3.66" waitingTime="0.00" timeLoss="6.54" speed="4.89" speedRelative="0.88" departed="0" arrived="0" entered="22" left="21" laneChangedFrom="0" laneChangedTo="0" flow="406.13"/>
        <edge id="-1060989493#7" sampledSeconds="137.50" traveltime="6.31" overlapTraveltime="6.64" density="22.49" overlapDensity="23.62" laneDensity="22.49" occupancy="3.60" waitingTime="0.00" timeLoss="19.89" speed="4.85" speedRelative="0.87" departed="0" arrived="0" entered="21" left="20" laneChangedFrom="0" laneChangedTo="0" flow="392.94"/>
        <edge id="-1060989493#8" sampledSeconds="110.82" traveltime="7.61" overlapTraveltime="7.92" density="14.65" overlapDensity="15.24" laneDensity="14.65" occupancy="2.34" waitingTime="0.00" timeLoss="13.73" speed="5.04" speedRelative="0.91" departed="0" arrived="0" entered="14" left="14" laneChangedFrom="0" laneChangedTo="0" flow="265.26"/>
        <edge id="-1060989493#9" sampledSeconds="36.08" traveltime="4.43" overlapTraveltime="5.15" density="20.78" overlapDensity="24.16" laneDensity="20.78" occupancy="3.45" waitingTime="8.00" timeLoss="24.68" speed="1.84" speedRelative="0.33" departed="0" arrived="0" entered="7" left="7" laneChangedFrom="0" laneChangedTo="0" flow="132.63"/>
        <edge id="-1060989494#0" sampledSeconds="19.86" traveltime="2.34" overlapTraveltime="2.84" density="14.67" overlapDensity="17.77" laneDensity="14.67" occupancy="2.45" waitingTime="3.00" timeLoss="10.85" speed="2.64" speedRelative="0.47" departed="0" arrived="0" entered="7" left="7" laneChangedFrom="0" laneChangedTo="0" flow="132.63"/>
        <edge id="-1060989494#1" sampledSeconds="114.38" traveltime="15.86" overlapTraveltime="16.34" density="7.19" overlapDensity="7.40" laneDensity="7.19" occupancy="1.16" waitingTime="1.00" timeLoss="14.51" speed="5.07" speedRelative="0.91" departed="0" arrived="0" entered="7" left="7" laneChangedFrom="0" laneChangedTo="0" flow="132.63"/>
        <edge id="-1060989494#2" sampledSeconds="49.36" traveltime="6.74" overlapTraveltime="7.05" density="7.01" overlapDensity="7.33" laneDensity="7.01" occupancy="1.12" waitingTime="0.00" timeLoss="4.76" speed="5.25" speedRelative="0.94" departed="0" arrived="0" entered="7" left="7" laneChangedFrom="0" laneChangedTo="0" flow="132.63"/>
        <edge id="-1060989494#3" sampledSeconds="0.00" departed="0" arrived="0" entered="0" left="0" laneChangedFrom="0" laneChangedTo="0"/>
        <edge id="-1060989495#0" sampledSeconds="23.54" traveltime="3.06" overlapTraveltime="3.36" density="7.13" overlapDensity="7.83" laneDensity="7.13" occupancy="1.14" waitingTime="0.00" timeLoss="1.28" speed="5.18" speedRelative="0.93" departed="0" arrived="0" entered="7" left="7" laneChangedFrom="0" laneChangedTo="0" flow="132.63"/>
        <edge id="-1060989495#1" sampledSeconds="18.08" traveltime="2.26" overlapTraveltime="2.58" density="7.63" overlapDensity="8.73" laneDensity="7.63" occupancy="1.22" waitingTime="0.00" timeLoss="2.10" speed="4.84" speedRelative="0.87" departed="0" arrived="0" entered="7" left="7" laneChangedFrom="0" laneChangedTo="0" flow="132.63"/>
        <edge id="-1060989496#0" sampledSeconds="0.00" departed="0" arrived="0" entered="0" left="0" laneChangedFrom="0" laneChangedTo="0"/>
        <edge id="-1060989496#1" sampledSeconds="0.00" departed="0" arrived="0" entered="0" left="0" laneChangedFrom="0" laneChangedTo="0"/>
        <edge id="-1060989496#2" sampledSeconds="0.00" departed="0" arrived="0" entered="0" left="0" laneChangedFrom="0" laneChangedTo="0"/>
        <edge id="-1060989496#3" sampledSeconds="0.00" departed="0" arrived="0" entered="0" left="0" laneChangedFrom="0" laneChangedTo="0"/>
        <edge id="-1060989496#4" sampledSeconds="0.00" departed="0" arrived="0" entered="0" left="0" laneChangedFrom="0" laneChangedTo="0"/>
        <edge id="-1061007736#0" sampledSeconds="0.00" departed="0" arrived="0" entered="0" left="0" laneChangedFrom="0" laneChangedTo="0"/>
        <edge id="-1061007736#1" sampledSeconds="0.00" departed="0" arrived="0" entered="0" left="0" laneChangedFrom="0" laneChangedTo="0"/>
        <edge id="-1061007736#2" sampledSeconds="0.00" departed="0" arrived="0" entered="0" left="0" laneChangedFrom="0" laneChangedTo="0"/>
        <edge id="-1061007736#3" sampledSeconds="3.34" traveltime="3.02" overlapTraveltime="3.34" density="1.05" overlapDensity="1.16" laneDensity="1.05" occupancy="0.17" waitingTime="0.00" timeLoss="0.49" speed="5.03" speedRelative="0.90" departed="0" arrived="0" entered="1" left="1" laneChangedFrom="0" laneChangedTo="0" flow="18.95"/>
        <edge id="-1061007736#4" sampledSeconds="3.44" traveltime="3.15" overlapTraveltime="3.44" density="1.01" overlapDensity="1.10" laneDensity="1.01" occupancy="0.16" waitingTime="0.00" timeLoss="0.38" speed="5.24" speedRelative="0.94" departed="0" arrived="0" entered="1" left="1" laneChangedFrom="0" laneChangedTo="0" flow="18.95"/>
        <edge id="-1061007736#5" sampledSeconds="2.89" traveltime="2.62" overlapTraveltime="2.89" density="0.92" overlapDensity="1.01" laneDensity="0.92" occupancy="0.15" waitingTime="0.00" timeLoss="0.07" speed="5.75" speedRelative="1.03" departed="0" arrived="0" entered="1" left="1" laneChangedFrom="0" laneChangedTo="0" flow="18.95"/>
        <edge id="-1061007736#6" sampledSeconds="3.49" traveltime="3.18" overlapTraveltime="3.49" density="1.01" overlapDensity="1.11" laneDensity="1.01" occupancy="0.16" waitingTime="0.00" timeLoss="0.41" speed="5.20" speedRelative="0.93" departed="0" arrived="0" entered="1" left="1" laneChangedFrom="0" laneChangedTo="0" flow="18.95"/>
        <edge id="-1061007736#7" sampledSeconds="3.38" traveltime="3.06" overlapTraveltime="3.38" density="1.02" overlapDensity="1.13" laneDensity="1.02" occupancy="0.16" waitingTime="0.00" timeLoss="0.43" speed="5.13" speedRelative="0.92" departed="0" arrived="0" entered="1" left="1" laneChangedFrom="0" laneChangedTo="0" flow="18.95"/>
        <edge id="-1061007736#8" sampledSeconds="2.78" traveltime="2.50" overlapTraveltime="2.78" density="0.92" overlapDensity="1.02" laneDensity="0.92" occupancy="0.15" waitingTime="0.00" timeLoss="0.07" speed="5.75" speedRelative="1.03" departed="0" arrived="0" entered="1" left="1" laneChangedFrom="0" laneChangedTo="0" flow="18.95"/>
        <edge id="-1061007736#9" sampledSeconds="0.98" traveltime="0.67" overlapTraveltime="0.98" density="1.07" overlapDensity="1.55" laneDensity="1.07" occupancy="0.16" waitingTime="0.00" timeLoss="0.14" speed="5.04" speedRelative="0.91" departed="0" arrived="0" entered="1" left="1" laneChangedFrom="0" laneChangedTo="0" flow="18.95"/>
        <edge id="-1061341066" sampledSeconds="0.00" departed="0" arrived="0" entered="0" left="0" laneChangedFrom="0" laneChangedTo="0"/>
        <edge id="-1061341067#0" sampledSeconds="0.00" departed="0" arrived="0" entered="0" left="0" laneChangedFrom="0" laneChangedTo="0"/>
        <edge id="-1061341067#1" sampledSeconds="0.00" departed="0" arrived="0" entered="0" left="0" laneChangedFrom="0" laneChangedTo="0"/>
        <edge id="-1081677329" sampledSeconds="0.00" departed="0" arrived="0" entered="0" left="0" laneChangedFrom="0" laneChangedTo="0"/>
        <edge id="-1081677330" sampledSeconds="0.00" departed="0" arrived="0" entered="0" left="0" laneChangedFrom="0" laneChangedTo="0"/>
        <edge id="-1081681931" sampledSeconds="0.00" departed="0" arrived="0" entered="0" left="0" laneChangedFrom="0" laneChangedTo="0"/>
        <edge id="-108179183#0" sampledSeconds="0.00" departed="0" arrived="0" entered="0" left="0" laneChangedFrom="0" laneChangedTo="0"/>
        <edge id="-108179183#1" sampledSeconds="0.00" departed="0" arrived="0" entered="0" left="0" laneChangedFrom="0" laneChangedTo="0"/>
        <edge id="-108179183#2" sampledSeconds="0.00" departed="0" arrived="0" entered="0" left="0" laneChangedFrom="0" laneChangedTo="0"/>
        <edge id="-108179314" sampledSeconds="0.00" departed="0" arrived="0" entered="0" left="0" laneChangedFrom="0" laneChangedTo="0"/>
        <edge id="-108534913#0" sampledSeconds="0.00" departed="0" arrived="0" entered="0" left="0" laneChangedFrom="0" laneChangedTo="0"/>
        <edge id="-108534913#1" sampledSeconds="0.00" departed="0" arrived="0" entered="0" left="0" laneChangedFrom="0" laneChangedTo="0"/>
        <edge id="-108534913#2" sampledSeconds="31.56" traveltime="19.60" overlapTraveltime="19.94" density="1.81" overlapDensity="1.81" laneDensity="1.81" occupancy="0.29" waitingTime="0.00" timeLoss="4.95" speed="4.68" speedRelative="0.34" departed="0" arrived="0" entered="2" left="0" laneChangedFrom="0" laneChangedTo="0" flow="30.50"/>
        <edge id="-108534913#3" sampledSeconds="10.44" traveltime="4.88" overlapTraveltime="5.22" density="2.23" overlapDensity="2.38" laneDensity="2.23" occupancy="0.36" waitingTime="0.00" timeLoss="1.62" speed="4.72" speedRelative="0.34" departed="0" arrived="0" entered="2" left="2" laneChangedFrom="0" laneChangedTo="0" flow="37.89"/>
        <edge id="-108534913#4" sampledSeconds="27.68" traveltime="13.50" overlapTraveltime="13.84" density="2.24" overlapDensity="2.30" laneDensity="2.24" occupancy="0.36" waitingTime="0.00" timeLoss="4.40" speed="4.70" speedRelative="0.34" departed="0" arrived="0" entered="2" left="2" laneChangedFrom="0" laneChangedTo="0" flow="37.89"/>
        <edge id="-108534913#5" sampledSeconds="27.20" traveltime="13.26" overlapTraveltime="13.60" density="2.24" overlapDensity="2.29" laneDensity="2.24" occupancy="0.36" waitingTime="0.00" timeLoss="4.28" speed="4.71" speedRelative="0.34" departed="0" arrived="0" entered="2" left="2" laneChangedFrom="0" laneChangedTo="0" flow="37.89"/>
        <edge id="-108534913#6" sampledSeconds="0.75" traveltime="0.04" overlapTraveltime="0.37" density="2.16" overlapDensity="19.63" laneDensity="2.16" occupancy="0.35" waitingTime="0.00" timeLoss="0.10" speed="4.83" speedRelative="0.35" departed="0" arrived="0" entered="2" left="2" laneChangedFrom="0" laneChangedTo="0" flow="37.89"/>
        <edge id="-1125729965#0" sampledSeconds="0.00" departed="0" arrived="0" entered="0" left="0" laneChangedFrom="0" laneChangedTo="0"/>
        <edge id="-1125729965#1" sampledSeconds="0.00" departed="0" arrived="0" entered="0" left="0" laneChangedFrom="0" laneChangedTo="0"/>
        <edge id="-1125729966" sampledSeconds="3.58" traveltime="3.56" overlapTraveltime="3.90" density="1.12" overlapDensity="1.12" laneDensity="1.12" occupancy="0.16" waitingTime="0.00" timeLoss="0.20" speed="4.72" speedRelative="0.85" departed="0" arrived="0" entered="2" left="0" laneChangedFrom="0" laneChangedTo="0" flow="19.03"/>
        <edge id="-1125912866" sampledSeconds="416.14" traveltime="11.40" overlapTraveltime="12.04" density="56.30" overlapDensity="58.00" laneDensity="56.30" occupancy="17.43" waitingTime="138.00" timeLoss="286.60" speed="3.40" speedRelative="0.24" departed="0" arrived="0" entered="38" left="32" laneChangedFrom="0" laneChangedTo="0" flow="671.67"/>
        <edge id="-1125912867" sampledSeconds="66.73" traveltime="2.04" overlapTraveltime="3.17" density="78.42" overlapDensity="103.91" laneDensity="78.42" occupancy="20.35" waitingTime="24.00" timeLoss="45.77" speed="2.27" speedRelative="0.16" departed="0" arrived="0" entered="25" left="24" laneChangedFrom="0" laneChangedTo="0" flow="468.07"/>
        <edge id="-1125912916#0" sampledSeconds="18.34" traveltime="0.79" overlapTraveltime="1.17" density="10.65" overlapDensity="15.42" laneDensity="10.65" occupancy="3.36" waitingTime="0.00" timeLoss="6.92" speed="8.45" speedRelative="0.61" departed="0" arrived="0" entered="16" left="16" laneChangedFrom="0" laneChangedTo="0" flow="303.16"/>
        <edge id="-1125912916#1" sampledSeconds="30.78" traveltime="1.30" overlapTraveltime="1.79" density="16.05" overlapDensity="22.35" laneDensity="16.05" occupancy="4.87" waitingTime="1.00" timeLoss="11.52" speed="5.86" speedRelative="0.42" departed="0" arrived="0" entered="17" left="17" laneChangedFrom="0" laneChangedTo="0" flow="322.11"/>
        <edge id="-1125912916#2" sampledSeconds="12.09" traveltime="1.25" overlapTraveltime="1.73" density="3.33" overlapDensity="4.61" laneDensity="3.33" occupancy="1.69" waitingTime="0.00" timeLoss="2.31" speed="10.89" speedRelative="0.78" departed="0" arrived="0" entered="7" left="7" laneChangedFrom="0" laneChangedTo="0" flow="132.63"/>
        <edge id="-1125912916#3" sampledSeconds="32.40" traveltime="4.17" overlapTraveltime="4.63" density="5.28" overlapDensity="5.86" laneDensity="5.28" occupancy="2.37" waitingTime="0.00" timeLoss="14.65" speed="7.37" speedRelative="0.53" departed="0" arrived="0" entered="7" left="7" laneChangedFrom="0" laneChangedTo="0" flow="132.63"/>
        <edge id="-1149027724" sampledSeconds="0.00" departed="0" arrived="0" entered="0" left="0" laneChangedFrom="0" laneChangedTo="0"/>
        <edge id="-1156915072#0" sampledSeconds="346.29" traveltime="7.54" overlapTraveltime="8.38" density="50.10" overlapDensity="55.03" laneDensity="50.10" occupancy="19.27" waitingTime="22.00" timeLoss="217.16" speed="4.41" speedRelative="0.32" departed="0" arrived="0" entered="43" left="41" laneChangedFrom="0" laneChangedTo="0" flow="791.98"/>
        <edge id="-1156915072#1" sampledSeconds="117.95" traveltime="2.30" overlapTraveltime="2.91" density="31.02" overlapDensity="38.18" laneDensity="31.02" occupancy="12.26" waitingTime="2.00" timeLoss="58.74" speed="6.97" speedRelative="0.50" departed="0" arrived="0" entered="42" left="41" laneChangedFrom="0" laneChangedTo="0" flow="788.28"/>
        <edge id="-1156915072#2" sampledSeconds="38.18" traveltime="1.16" overlapTraveltime="1.92" density="13.64" overlapDensity="49.86" laneDensity="13.64" occupancy="11.09" waitingTime="0.00" timeLoss="27.15" speed="4.00" speedRelative="0.29" departed="35" arrived="0" entered="0" left="35" laneChangedFrom="0" laneChangedTo="0" flow="170.81"/>
        <edge id="-1156915074" sampledSeconds="0.00" departed="0" arrived="0" entered="0" left="0" laneChangedFrom="0" laneChangedTo="0"/>
        <edge id="-1163294283" sampledSeconds="114.12" traveltime="16.43" overlapTraveltime="17.04" density="15.28" overlapDensity="15.87" laneDensity="15.28" occupancy="2.50" waitingTime="15.00" timeLoss="66.28" speed="2.32" speedRelative="0.17" departed="7" arrived="0" entered="0" left="7" laneChangedFrom="0" laneChangedTo="0" flow="126.67"/>
        <edge id="-1183389476#0" sampledSeconds="45.67" traveltime="0.11" overlapTraveltime="0.98" density="109.61" overlapDensity="476.19" laneDensity="109.61" occupancy="22.69" waitingTime="9.00" timeLoss="29.18" speed="3.37" speedRelative="0.24" departed="7" arrived="0" entered="38" left="45" laneChangedFrom="0" laneChangedTo="0" flow="720.00"/>
        <edge id="-1183389476#1" sampledSeconds="31.16" traveltime="0.04" overlapTraveltime="0.95" density="39.69" overlapDensity="476.19" laneDensity="39.69" occupancy="15.60" waitingTime="0.00" timeLoss="18.46" speed="4.50" speedRelative="0.32" departed="0" arrived="0" entered="38" left="38" laneChangedFrom="0" laneChangedTo="0" flow="720.00"/>
        <edge id="-1183389476#2" sampledSeconds="22.89" traveltime="0.05" overlapTraveltime="0.82" density="38.01" overlapDensity="476.19" laneDensity="38.01" occupancy="11.33" waitingTime="0.00" timeLoss="12.49" speed="5.01" speedRelative="0.36" departed="0" arrived="0" entered="32" left="32" laneChangedFrom="0" laneChangedTo="0" flow="606.32"/>
        <edge id="-1183389476#3" sampledSeconds="35.40" traveltime="0.78" overlapTraveltime="1.43" density="32.24" overlapDensity="58.23" laneDensity="32.24" occupancy="9.62" waitingTime="3.00" timeLoss="19.68" speed="4.72" speedRelative="0.34" departed="0" arrived="0" entered="25" left="25" laneChangedFrom="0" laneChangedTo="0" flow="473.68"/>
        <edge id="-1183389476#4" sampledSeconds="16.73" traveltime="0.04" overlapTraveltime="0.75" density="24.69" overlapDensity="440.37" laneDensity="24.69" occupancy="8.32" waitingTime="0.00" timeLoss="8.36" speed="5.82" speedRelative="0.42" departed="0" arrived="0" entered="26" left="26" laneChangedFrom="0" laneChangedTo="0" flow="492.63"/>
        <edge id="-1188778649" sampledSeconds="0.00" departed="0" arrived="0" entered="0" left="0" laneChangedFrom="0" laneChangedTo="0"/>
        <edge id="-118915928#1" sampledSeconds="0.00" departed="0" arrived="0" entered="0" left="0" laneChangedFrom="0" laneChangedTo="0"/>
        <edge id="-118915930" sampledSeconds="0.00" departed="0" arrived="0" entered="0" left="0" laneChangedFrom="0" laneChangedTo="0"/>
        <edge id="-118915931#1" sampledSeconds="690.84" traveltime="47.42" overlapTraveltime="48.99" density="58.11" overlapDensity="58.91" laneDensity="58.11" occupancy="24.07" waitingTime="481.00" timeLoss="618.85" speed="1.34" speedRelative="0.10" departed="0" arrived="0" entered="16" left="10" laneChangedFrom="0" laneChangedTo="0" flow="272.31"/>
        <edge id="-118915931#2" sampledSeconds="15.04" traveltime="3.74" overlapTraveltime="4.17" density="1.64" overlapDensity="1.79" laneDensity="1.64" occupancy="0.81" waitingTime="0.00" timeLoss="1.64" speed="11.79" speedRelative="0.85" departed="0" arrived="0" entered="4" left="3" laneChangedFrom="0" laneChangedTo="0" flow="69.59"/>
        <edge id="-118915931#3" sampledSeconds="40.12" traveltime="6.74" overlapTraveltime="7.17" density="3.21" overlapDensity="3.39" laneDensity="3.21" occupancy="1.65" waitingTime="0.00" timeLoss="11.71" speed="9.39" speedRelative="0.68" departed="7" arrived="0" entered="0" left="5" laneChangedFrom="0" laneChangedTo="0" flow="106.89"/>
        <edge id="-118915934" sampledSeconds="0.00" departed="0" arrived="0" entered="0" left="0" laneChangedFrom="0" laneChangedTo="0"/>
        <edge id="-118915940#0" sampledSeconds="0.00" departed="0" arrived="0" entered="0" left="0" laneChangedFrom="0" laneChangedTo="0"/>
        <edge id="-118915940#1" sampledSeconds="0.00" departed="0" arrived="0" entered="0" left="0" laneChangedFrom="0" laneChangedTo="0"/>
        <edge id="-118915964#0" sampledSeconds="59.45" traveltime="8.29" overlapTraveltime="8.49" density="3.36" overlapDensity="3.44" laneDensity="3.36" occupancy="0.74" waitingTime="0.00" timeLoss="8.68" speed="10.95" speedRelative="0.79" departed="0" arrived="0" entered="7" left="7" laneChangedFrom="0" laneChangedTo="0" flow="132.63"/>
        <edge id="-118915964#1" sampledSeconds="36.65" traveltime="5.28" overlapTraveltime="5.48" density="3.82" overlapDensity="3.98" laneDensity="3.82" occupancy="0.86" waitingTime="0.00" timeLoss="10.23" speed="9.25" speedRelative="0.67" departed="7" arrived="0" entered="0" left="7" laneChangedFrom="0" laneChangedTo="0" flow="126.34"/>
        <edge id="-118915966#0" sampledSeconds="30.57" traveltime="4.05" overlapTraveltime="4.43" density="2.76" overlapDensity="2.98" laneDensity="2.76" occupancy="1.38" waitingTime="0.00" timeLoss="2.33" speed="13.33" speedRelative="0.96" departed="0" arrived="7" entered="7" left="0" laneChangedFrom="0" laneChangedTo="0" flow="132.63"/>
        <edge id="-118915966#1" sampledSeconds="32.84" traveltime="4.32" overlapTraveltime="4.69" density="3.47" overlapDensity="3.76" laneDensity="3.47" occupancy="1.66" waitingTime="0.00" timeLoss="8.17" speed="10.85" speedRelative="0.78" departed="0" arrived="0" entered="7" left="7" laneChangedFrom="0" laneChangedTo="0" flow="132.63"/>
        <edge id="-118915966#2" sampledSeconds="34.48" traveltime="4.13" overlapTraveltime="4.93" density="4.36" overlapDensity="5.21" laneDensity="4.36" occupancy="2.23" waitingTime="0.00" timeLoss="10.69" speed="8.09" speedRelative="0.58" departed="0" arrived="0" entered="7" left="7" laneChangedFrom="0" laneChangedTo="0" flow="132.63"/>
        <edge id="-1190968366#0" sampledSeconds="0.00" departed="0" arrived="0" entered="0" left="0" laneChangedFrom="0" laneChangedTo="0"/>
        <edge id="-1190968366#1" sampledSeconds="0.00" departed="0" arrived="0" entered="0" left="0" laneChangedFrom="0" laneChangedTo="0"/>
        <edge id="-1190968366#2" sampledSeconds="0.00" departed="0" arrived="0" entered="0" left="0" laneChangedFrom="0" laneChangedTo="0"/>
        <edge id="-1190968366#3" sampledSeconds="0.00" departed="0" arrived="0" entered="0" left="0" laneChangedFrom="0" laneChangedTo="0"/>
        <edge id="-1190968366#4" sampledSeconds="0.00" departed="0" arrived="0" entered="0" left="0" laneChangedFrom="0" laneChangedTo="0"/>
        <edge id="-1190968366#5" sampledSeconds="0.00" departed="0" arrived="0" entered="0" left="0" laneChangedFrom="0" laneChangedTo="0"/>
        <edge id="-1191966697" sampledSeconds="0.00" departed="0" arrived="0" entered="0" left="0" laneChangedFrom="0" laneChangedTo="0"/>
        <edge id="-1191966698" sampledSeconds="5.62" traveltime="2.01" overlapTraveltime="2.81" density="1.73" overlapDensity="2.43" laneDensity="1.73" occupancy="0.86" waitingTime="0.00" timeLoss="2.41" speed="6.11" speedRelative="0.44" departed="0" arrived="0" entered="2" left="2" laneChangedFrom="0" laneChangedTo="0" flow="37.89"/>
        <edge id="-1191966699" sampledSeconds="0.00" departed="0" arrived="0" entered="0" left="0" laneChangedFrom="0" laneChangedTo="0"/>
        <edge id="-1191966700" sampledSeconds="7.18" traveltime="0.70" overlapTraveltime="1.03" density="8.33" overlapDensity="12.15" laneDensity="8.33" occupancy="1.28" waitingTime="0.00" timeLoss="1.42" speed="4.59" speedRelative="0.33" departed="0" arrived="0" entered="7" left="7" laneChangedFrom="0" laneChangedTo="0" flow="132.63"/>
        <edge id="-1192037622" sampledSeconds="0.00" departed="0" arrived="0" entered="0" left="0" laneChangedFrom="0" laneChangedTo="0"/>
        <edge id="-1192037623#0" sampledSeconds="0.00" departed="0" arrived="0" entered="0" left="0" laneChangedFrom="0" laneChangedTo="0"/>
        <edge id="-1192037623#1" sampledSeconds="54.26" traveltime="7.69" overlapTraveltime="8.09" density="5.17" overlapDensity="5.46" laneDensity="5.17" occupancy="1.17" waitingTime="0.00" timeLoss="24.92" speed="6.74" speedRelative="0.49" departed="7" arrived="0" entered="0" left="7" laneChangedFrom="0" laneChangedTo="0" flow="126.80"/>
        <edge id="-1192335102" sampledSeconds="234.53" traveltime="92.35" overlapTraveltime="104.05" density="119.39" overlapDensity="120.19" laneDensity="119.39" occupancy="26.34" waitingTime="216.00" timeLoss="232.48" speed="0.12" speedRelative="0.01" departed="0" arrived="0" entered="3" left="1" laneChangedFrom="0" laneChangedTo="0" flow="47.80"/>
        <edge id="-119276337#0" sampledSeconds="111.99" traveltime="8.05" overlapTraveltime="8.24" density="7.41" overlapDensity="7.59" laneDensity="7.41" occupancy="1.65" waitingTime="0.00" timeLoss="30.07" speed="9.70" speedRelative="0.70" departed="14" arrived="0" entered="0" left="14" laneChangedFrom="0" laneChangedTo="0" flow="257.41"/>
        <edge id="-119276337#1" sampledSeconds="0.00" departed="0" arrived="0" entered="0" left="0" laneChangedFrom="0" laneChangedTo="0"/>
        <edge id="-119276337#2" sampledSeconds="0.00" departed="0" arrived="0" entered="0" left="0" laneChangedFrom="0" laneChangedTo="0"/>
        <edge id="-119276349#1" sampledSeconds="0.00" departed="0" arrived="0" entered="0" left="0" laneChangedFrom="0" laneChangedTo="0"/>
        <edge id="-119276349#10" sampledSeconds="0.00" departed="0" arrived="0" entered="0" left="0" laneChangedFrom="0" laneChangedTo="0"/>
        <edge id="-119276349#11" sampledSeconds="0.00" departed="0" arrived="0" entered="0" left="0" laneChangedFrom="0" laneChangedTo="0"/>
        <edge id="-119276349#12" sampledSeconds="0.00" departed="0" arrived="0" entered="0" left="0" laneChangedFrom="0" laneChangedTo="0"/>