<?xml version="1.0" encoding="UTF-8"?>

<!-- generated on 2026-02-06T14:43:20.827692+07:00 by Eclipse SUMO sumo v1_25_0+0904-59bbc76848e
<sumoConfiguration xmlns:xsi="http://www.w3.org/2001/XMLSchema-instance" xsi:noNamespaceSchemaLocation="http://sumo.dlr.de/xsd/sumoConfiguration.xsd">

    <input>
        <net-file value="maps/CTU_map/osm.net.xml.gz"/>
        <route-files value="maps/CTU_map/osm.bicycle.trips.xml,maps/CTU_map/osm.motorcycle.trips.xml,maps/CTU_map/osm.passenger.trips.xml,maps/CTU_map/osm.pedestrian.rou.xml"/>
        <additional-files value="maps/CTU_map/osm.poly.xml.gz,maps/CTU_map/output.add.xml"/>
    </input>

    <output>
        <tripinfo-output value="maps/CTU_map/tripinfos.xml"/>
        <statistic-output value="maps/CTU_map/stats.xml"/>
    </output>

    <processing>
        <ignore-route-errors value="true"/>
        <scale value="7.0"/>
        <tls.actuated.jam-threshold value="30"/>
    </processing>

    <routing>
        <device.rerouting.adaptation-steps value="18"/>
        <device.rerouting.adaptation-interval value="10"/>
    </routing>

    <report>
        <verbose value="true"/>
        <no-warnings value="true"/>
        <no-step-log value="true"/>
    </report>

    <emissions>
        <device.emissions.probability value="1.0"/>
    </emissions>

    <traci_server>
        <remote-port value="32829"/>
    </traci_server>

    <gui_only>
        <gui-settings-file value="maps/CTU_map/osm.view.xml"/>
        <quit-on-end value="true"/>
        <start value="true"/>
        <delay value="20"/>
    </gui_only>

</sumoConfiguration>
-->

<meandata xmlns:xsi="http://www.w3.org/2001/XMLSchema-instance" xsi:noNamespaceSchemaLocation="http://sumo.dlr.de/xsd/meandata_file.xsd">
    <interval begin="0.00" end="309.00" id="wizard_example">
        <edge id="-1006436797#0" sampledSeconds="72.20" traveltime="10.45" overlapTraveltime="10.77" density="5.83" overlapDensity="6.02" laneDensity="5.83" occupancy="0.95" waitingTime="1.00" timeLoss="22.33" speed="3.75" speedRelative="0.68" departed="7" arrived="0" entered="0" left="7" laneChangedFrom="0" laneChangedTo="0" flow="77.98"/>
        <edge id="-1006436797#1" sampledSeconds="0.00" departed="0" arrived="0" entered="0" left="0" laneChangedFrom="0" laneChangedTo="0"/>
        <edge id="-1006436797#2" sampledSeconds="2.20" traveltime="1.94" overlapTraveltime="2.20" density="0.55" overlapDensity="0.62" laneDensity="0.55" occupancy="0.09" waitingTime="0.00" timeLoss="0.14" speed="5.95" speedRelative="1.07" departed="0" arrived="0" entered="1" left="1" laneChangedFrom="0" laneChangedTo="0" flow="11.65"/>
        <edge id="-1006436797#3" sampledSeconds="8.20" traveltime="3.79" overlapTraveltime="4.10" density="1.24" overlapDensity="1.34" laneDensity="1.24" occupancy="0.20" waitingTime="0.00" timeLoss="0.54" speed="5.22" speedRelative="0.94" departed="0" arrived="0" entered="2" left="2" laneChangedFrom="0" laneChangedTo="0" flow="23.30"/>
        <edge id="-1006436797#4" sampledSeconds="12.59" overlapTraveltime="2.70" density="0.00" overlapDensity="51.56" laneDensity="0.00" occupancy="3.53" waitingTime="2.00" timeLoss="10.31" speed="0.89" speedRelative="0.16" departed="7" arrived="0" entered="0" left="7" laneChangedFrom="0" laneChangedTo="0" flow="0.00"/>
        <edge id="-1006436798" sampledSeconds="74.04" traveltime="10.22" overlapTraveltime="10.58" density="4.69" overlapDensity="4.85" laneDensity="4.69" occupancy="0.75" waitingTime="0.00" timeLoss="7.96" speed="4.82" speedRelative="0.87" departed="0" arrived="0" entered="7" left="7" laneChangedFrom="0" laneChangedTo="0" flow="81.55"/>
        <edge id="-1006436799#0" sampledSeconds="0.00" departed="0" arrived="0" entered="0" left="0" laneChangedFrom="0" laneChangedTo="0"/>
        <edge id="-1006436799#1" sampledSeconds="0.35" traveltime="0.07" overlapTraveltime="0.35" density="0.57" overlapDensity="2.90" laneDensity="0.57" occupancy="0.09" waitingTime="0.00" timeLoss="0.04" speed="5.70" speedRelative="1.02" departed="0" arrived="0" entered="1" left="1" laneChangedFrom="0" laneChangedTo="0" flow="11.65"/>
        <edge id="-1006436802#0" sampledSeconds="2.88" traveltime="1.26" overlapTraveltime="1.56" density="1.39" overlapDensity="1.59" laneDensity="1.39" occupancy="0.21" waitingTime="0.00" timeLoss="0.44" speed="4.79" speedRelative="0.86" departed="0" arrived="2" entered="2" left="0" laneChangedFrom="0" laneChangedTo="0" flow="23.30"/>
        <edge id="-1006436802#1" sampledSeconds="0.00" departed="0" arrived="0" entered="0" left="0" laneChangedFrom="0" laneChangedTo="0"/>
        <edge id="-1006436820" sampledSeconds="0.00" departed="0" arrived="0" entered="0" left="0" laneChangedFrom="0" laneChangedTo="0"/>
        <edge id="-1049200866" sampledSeconds="608.07" traveltime="23.17" overlapTraveltime="24.67" density="50.67" overlapDensity="52.34" laneDensity="50.67" occupancy="22.14" waitingTime="330.00" timeLoss="519.83" speed="1.70" speedRelative="0.12" departed="30" arrived="0" entered="0" left="26" laneChangedFrom="0" laneChangedTo="0" flow="296.03"/>
        <edge id="-1050341200" sampledSeconds="0.00" departed="0" arrived="0" entered="0" left="0" laneChangedFrom="0" laneChangedTo="0"/>
        <edge id="-1060989491" sampledSeconds="0.00" departed="0" arrived="0" entered="0" left="0" laneChangedFrom="0" laneChangedTo="0"/>
        <edge id="-1060989493#0" sampledSeconds="163.12" traveltime="7.38" overlapTraveltime="7.77" density="13.49" overlapDensity="14.19" laneDensity="13.49" occupancy="2.17" waitingTime="0.00" timeLoss="17.31" speed="5.00" speedRelative="0.90" departed="0" arrived="0" entered="21" left="21" laneChangedFrom="0" laneChangedTo="0" flow="244.66"/>
        <edge id="-1060989493#1" sampledSeconds="159.98" traveltime="7.32" overlapTraveltime="7.62" density="12.97" overlapDensity="13.51" laneDensity="12.97" occupancy="2.07" waitingTime="0.00" timeLoss="12.40" speed="5.24" speedRelative="0.94" departed="0" arrived="0" entered="21" left="21" laneChangedFrom="0" laneChangedTo="0" flow="244.66"/>
        <edge id="-1060989493#2" sampledSeconds="121.59" traveltime="5.32" overlapTraveltime="5.79" density="17.74" overlapDensity="19.32" laneDensity="17.74" occupancy="2.88" waitingTime="14.00" timeLoss="40.09" speed="3.79" speedRelative="0.68" departed="0" arrived="0" entered="21" left="21" laneChangedFrom="0" laneChangedTo="0" flow="244.66"/>
        <edge id="-1060989493#3" sampledSeconds="66.70" traveltime="2.63" overlapTraveltime="3.18" density="14.59" overlapDensity="17.59" laneDensity="14.59" occupancy="2.39" waitingTime="1.00" timeLoss="15.54" speed="4.37" speedRelative="0.79" departed="0" arrived="0" entered="21" left="21" laneChangedFrom="0" laneChangedTo="0" flow="244.66"/>
        <edge id="-1060989493#4" sampledSeconds="204.77" traveltime="8.90" overlapTraveltime="9.75" density="15.67" overlapDensity="17.16" laneDensity="15.67" occupancy="2.60" waitingTime="4.00" timeLoss="56.45" speed="4.12" speedRelative="0.74" departed="0" arrived="0" entered="21" left="21" laneChangedFrom="0" laneChangedTo="0" flow="244.66"/>
        <edge id="-1060989493#5" sampledSeconds="61.24" traveltime="1.85" overlapTraveltime="2.19" density="18.21" overlapDensity="21.52" laneDensity="18.21" occupancy="2.92" waitingTime="0.00" timeLoss="8.34" speed="4.94" speedRelative="0.89" departed="0" arrived="0" entered="28" left="28" laneChangedFrom="0" laneChangedTo="0" flow="326.21"/>
        <edge id="-1060989493#7" sampledSeconds="158.20" traveltime="6.75" overlapTraveltime="7.53" density="14.96" overlapDensity="16.71" laneDensity="14.96" occupancy="2.53" waitingTime="15.00" timeLoss="38.78" speed="4.28" speedRelative="0.77" departed="0" arrived="0" entered="21" left="21" laneChangedFrom="0" laneChangedTo="0" flow="244.66"/>
        <edge id="-1060989493#8" sampledSeconds="109.56" traveltime="7.52" overlapTraveltime="7.83" density="8.90" overlapDensity="9.26" laneDensity="8.90" occupancy="1.42" waitingTime="0.00" timeLoss="12.47" speed="5.10" speedRelative="0.92" departed="0" arrived="0" entered="14" left="14" laneChangedFrom="0" laneChangedTo="0" flow="163.11"/>
        <edge id="-1060989493#9" sampledSeconds="36.08" traveltime="4.43" overlapTraveltime="5.15" density="12.78" overlapDensity="14.85" laneDensity="12.78" occupancy="2.12" waitingTime="8.00" timeLoss="24.68" speed="1.84" speedRelative="0.33" departed="0" arrived="0" entered="7" left="7" laneChangedFrom="0" laneChangedTo="0" flow="81.55"/>
        <edge id="-1060989494#0" sampledSeconds="19.86" traveltime="2.34" overlapTraveltime="2.84" density="9.02" overlapDensity="10.93" laneDensity="9.02" occupancy="1.51" waitingTime="3.00" timeLoss="10.85" speed="2.64" speedRelative="0.47" departed="0" arrived="0" entered="7" left="7" laneChangedFrom="0" laneChangedTo="0" flow="81.55"/>
        <edge id="-1060989494#1" sampledSeconds="114.38" traveltime="15.86" overlapTraveltime="16.34" density="4.42" overlapDensity="4.55" laneDensity="4.42" occupancy="0.71" waitingTime="1.00" timeLoss="14.51" speed="5.07" speedRelative="0.91" departed="0" arrived="0" entered="7" left="7" laneChangedFrom="0" laneChangedTo="0" flow="81.55"/>
        <edge id="-1060989494#2" sampledSeconds="49.36" traveltime="6.74" overlapTraveltime="7.05" density="4.31" overlapDensity="4.51" laneDensity="4.31" occupancy="0.69" waitingTime="0.00" timeLoss="4.76" speed="5.25" speedRelative="0.94" departed="0" arrived="0" entered="7" left="7" laneChangedFrom="0" laneChangedTo="0" flow="81.55"/>
        <edge id="-1060989494#3" sampledSeconds="0.00" departed="0" arrived="0" entered="0" left="0" laneChangedFrom="0" laneChangedTo="0"/>
        <edge id="-1060989495#0" sampledSeconds="23.54" traveltime="3.06" overlapTraveltime="3.36" density="4.39" overlapDensity="4.82" laneDensity="4.39" occupancy="0.70" waitingTime="0.00" timeLoss="1.28" speed="5.18" speedRelative="0.93" departed="0" arrived="0" entered="7" left="7" laneChangedFrom="0" laneChangedTo="0" flow="81.55"/>
        <edge id="-1060989495#1" sampledSeconds="18.08" traveltime="2.26" overlapTraveltime="2.58" density="4.69" overlapDensity="5.37" laneDensity="4.69" occupancy="0.75" waitingTime="0.00" timeLoss="2.10" speed="4.84" speedRelative="0.87" departed="0" arrived="0" entered="7" left="7" laneChangedFrom="0" laneChangedTo="0" flow="81.55"/>
        <edge id="-1060989496#0" sampledSeconds="0.00" departed="0" arrived="0" entered="0" left="0" laneChangedFrom="0" laneChangedTo="0"/>
        <edge id="-1060989496#1" sampledSeconds="0.00" departed="0" arrived="0" entered="0" left="0" laneChangedFrom="0" laneChangedTo="0"/>
        <edge id="-1060989496#2" sampledSeconds="0.00" departed="0" arrived="0" entered="0" left="0" laneChangedFrom="0" laneChangedTo="0"/>
        <edge id="-1060989496#3" sampledSeconds="0.00" departed="0" arrived="0" entered="0" left="0" laneChangedFrom="0" laneChangedTo="0"/>
        <edge id="-1060989496#4" sampledSeconds="0.00" departed="0" arrived="0" entered="0" left="0" laneChangedFrom="0" laneChangedTo="0"/>
        <edge id="-1061007736#0" sampledSeconds="0.00" departed="0" arrived="0" entered="0" left="0" laneChangedFrom="0" laneChangedTo="0"/>
        <edge id="-1061007736#1" sampledSeconds="124.59" traveltime="17.50" overlapTraveltime="17.80" density="4.51" overlapDensity="4.58" laneDensity="4.51" occupancy="0.72" waitingTime="0.00" timeLoss="10.94" speed="5.03" speedRelative="0.90" departed="0" arrived="7" entered="7" left="0" laneChangedFrom="0" laneChangedTo="0" flow="81.55"/>
        <edge id="-1061007736#2" sampledSeconds="25.62" traveltime="3.32" overlapTraveltime="3.66" density="4.89" overlapDensity="5.40" laneDensity="4.89" occupancy="0.79" waitingTime="0.00" timeLoss="4.09" speed="4.63" speedRelative="0.83" departed="0" arrived="0" entered="7" left="7" laneChangedFrom="0" laneChangedTo="0" flow="81.55"/>
        <edge id="-1061007736#3" sampledSeconds="24.75" traveltime="3.21" overlapTraveltime="3.54" density="4.77" overlapDensity="5.26" laneDensity="4.77" occupancy="0.77" waitingTime="0.00" timeLoss="3.40" speed="4.76" speedRelative="0.86" departed="0" arrived="0" entered="7" left="7" laneChangedFrom="0" laneChangedTo="0" flow="81.55"/>
        <edge id="-1061007736#4" sampledSeconds="26.42" traveltime="3.45" overlapTraveltime="3.77" density="4.75" overlapDensity="5.20" laneDensity="4.75" occupancy="0.76" waitingTime="0.00" timeLoss="3.51" speed="4.78" speedRelative="0.86" departed="0" arrived="0" entered="7" left="7" laneChangedFrom="0" laneChangedTo="0" flow="81.55"/>
        <edge id="-1061007736#5" sampledSeconds="23.52" traveltime="3.03" overlapTraveltime="3.36" density="4.58" overlapDensity="5.07" laneDensity="4.58" occupancy="0.73" waitingTime="0.00" timeLoss="2.44" speed="4.94" speedRelative="0.89" departed="0" arrived="0" entered="7" left="7" laneChangedFrom="0" laneChangedTo="0" flow="81.55"/>
        <edge id="-1061007736#6" sampledSeconds="25.74" traveltime="3.35" overlapTraveltime="3.68" density="4.59" overlapDensity="5.04" laneDensity="4.59" occupancy="0.74" waitingTime="0.00" timeLoss="2.73" speed="4.93" speedRelative="0.89" departed="0" arrived="0" entered="7" left="7" laneChangedFrom="0" laneChangedTo="0" flow="81.55"/>
        <edge id="-1061007736#7" sampledSeconds="24.59" traveltime="3.19" overlapTraveltime="3.51" density="4.60" overlapDensity="5.06" laneDensity="4.60" occupancy="0.74" waitingTime="0.00" timeLoss="2.59" speed="4.93" speedRelative="0.89" departed="0" arrived="0" entered="7" left="7" laneChangedFrom="0" laneChangedTo="0" flow="81.55"/>
        <edge id="-1061007736#8" sampledSeconds="21.88" traveltime="2.81" overlapTraveltime="3.13" density="4.43" overlapDensity="4.93" laneDensity="4.43" occupancy="0.71" waitingTime="0.00" timeLoss="1.62" speed="5.11" speedRelative="0.92" departed="0" arrived="0" entered="7" left="7" laneChangedFrom="0" laneChangedTo="0" flow="81.55"/>
        <edge id="-1061007736#9" sampledSeconds="8.29" traveltime="0.84" overlapTraveltime="1.18" density="5.71" overlapDensity="8.08" laneDensity="5.71" occupancy="0.87" waitingTime="0.00" timeLoss="2.04" speed="4.16" speedRelative="0.75" departed="0" arrived="0" entered="7" left="7" laneChangedFrom="0" laneChangedTo="0" flow="81.55"/>
        <edge id="-1061341066" sampledSeconds="0.00" departed="0" arrived="0" entered="0" left="0" laneChangedFrom="0" laneChangedTo="0"/>
        <edge id="-1061341067#0" sampledSeconds="0.00" departed="0" arrived="0" entered="0" left="0" laneChangedFrom="0" laneChangedTo="0"/>
        <edge id="-1061341067#1" sampledSeconds="0.00" departed="0" arrived="0" entered="0" left="0" laneChangedFrom="0" laneChangedTo="0"/>
        <edge id="-1081677329" sampledSeconds="0.00" departed="0" arrived="0" entered="0" left="0" laneChangedFrom="0" laneChangedTo="0"/>
        <edge id="-1081677330" sampledSeconds="0.00" departed="0" arrived="0" entered="0" left="0" laneChangedFrom="0" laneChangedTo="0"/>
        <edge id="-1081681931" sampledSeconds="0.00" departed="0" arrived="0" entered="0" left="0" laneChangedFrom="0" laneChangedTo="0"/>
        <edge id="-108179183#0" sampledSeconds="0.00" departed="0" arrived="0" entered="0" left="0" laneChangedFrom="0" laneChangedTo="0"/>
        <edge id="-108179183#1" sampledSeconds="0.00" departed="0" arrived="0" entered="0" left="0" laneChangedFrom="0" laneChangedTo="0"/>
        <edge id="-108179183#2" sampledSeconds="0.00" departed="0" arrived="0" entered="0" left="0" laneChangedFrom="0" laneChangedTo="0"/>
        <edge id="-108179314" sampledSeconds="0.00" departed="0" arrived="0" entered="0" left="0" laneChangedFrom="0" laneChangedTo="0"/>
        <edge id="-108534913#0" sampledSeconds="0.00" departed="0" arrived="0" entered="0" left="0" laneChangedFrom="0" laneChangedTo="0"/>
        <edge id="-108534913#1" sampledSeconds="45.56" traveltime="4.71" overlapTraveltime="5.06" density="6.03" overlapDensity="6.48" laneDensity="6.03" occupancy="0.97" waitingTime="0.00" timeLoss="7.34" speed="4.81" speedRelative="0.35" departed="0" arrived="0" entered="9" left="9" laneChangedFrom="0" laneChangedTo="0" flow="104.85"/>
        <edge id="-108534913#2" sampledSeconds="39.71" traveltime="19.52" overlapTraveltime="19.86" density="1.38" overlapDensity="1.40" laneDensity="1.38" occupancy="0.22" waitingTime="0.00" timeLoss="6.29" speed="4.71" speedRelative="0.34" departed="0" arrived="0" entered="2" left="2" laneChangedFrom="0" laneChangedTo="0" flow="23.30"/>
        <edge id="-108534913#3" sampledSeconds="10.44" traveltime="4.88" overlapTraveltime="5.22" density="1.37" overlapDensity="1.47" laneDensity="1.37" occupancy="0.22" waitingTime="0.00" timeLoss="1.62" speed="4.72" speedRelative="0.34" departed="0" arrived="0" entered="2" left="2" laneChangedFrom="0" laneChangedTo="0" flow="23.30"/>
        <edge id="-108534913#4" sampledSeconds="27.68" traveltime="13.50" overlapTraveltime="13.84" density="1.38" overlapDensity="1.41" laneDensity="1.38" occupancy="0.22" waitingTime="0.00" timeLoss="4.40" speed="4.70" speedRelative="0.34" departed="0" arrived="0" entered="2" left="2" laneChangedFrom="0" laneChangedTo="0" flow="23.30"/>
        <edge id="-108534913#5" sampledSeconds="27.20" traveltime="13.26" overlapTraveltime="13.60" density="1.37" overlapDensity="1.41" laneDensity="1.37" occupancy="0.22" waitingTime="0.00" timeLoss="4.28" speed="4.71" speedRelative="0.34" departed="0" arrived="0" entered="2" left="2" laneChangedFrom="0" laneChangedTo="0" flow="23.30"/>
        <edge id="-108534913#6" sampledSeconds="69.54" traveltime="0.04" overlapTraveltime="17.17" density="1.33" overlapDensity="476.19" laneDensity="1.33" occupancy="22.45" waitingTime="60.00" timeLoss="67.14" speed="0.14" speedRelative="0.01" departed="3" arrived="0" entered="2" left="5" laneChangedFrom="0" laneChangedTo="0" flow="23.30"/>
        <edge id="-1125729965#0" sampledSeconds="0.00" departed="0" arrived="0" entered="0" left="0" laneChangedFrom="0" laneChangedTo="0"/>
        <edge id="-1125729965#1" sampledSeconds="0.00" departed="0" arrived="0" entered="0" left="0" laneChangedFrom="0" laneChangedTo="0"/>
        <edge id="-1125729966" sampledSeconds="86.01" traveltime="11.78" overlapTraveltime="12.29" density="15.88" overlapDensity="16.56" laneDensity="15.88" occupancy="2.56" waitingTime="53.00" timeLoss="62.48" speed="1.50" speedRelative="0.27" departed="0" arrived="0" entered="7" left="7" laneChangedFrom="0" laneChangedTo="0" flow="81.55"/>
        <edge id="-1125912866" sampledSeconds="1156.16" traveltime="27.82" overlapTraveltime="29.10" density="97.53" overlapDensity="99.09" laneDensity="97.53" occupancy="33.04" waitingTime="789.00" timeLoss="1010.07" speed="1.42" speedRelative="0.10" departed="0" arrived="0" entered="43" left="38" laneChangedFrom="0" laneChangedTo="0" flow="476.54"/>
        <edge id="-1125912867" sampledSeconds="183.43" traveltime="5.77" overlapTraveltime="7.27" density="154.47" overlapDensity="175.63" laneDensity="154.47" occupancy="37.48" waitingTime="127.00" timeLoss="159.53" speed="0.95" speedRelative="0.07" departed="0" arrived="0" entered="28" left="27" laneChangedFrom="0" laneChangedTo="0" flow="325.80"/>
        <edge id="-1125912916#0" sampledSeconds="50.52" traveltime="0.86" overlapTraveltime="1.21" density="18.71" overlapDensity="26.12" laneDensity="18.71" occupancy="5.08" waitingTime="0.00" timeLoss="15.81" speed="7.73" speedRelative="0.56" departed="0" arrived="0" entered="42" left="42" laneChangedFrom="0" laneChangedTo="0" flow="489.32"/>
        <edge id="-1125912916#1" sampledSeconds="88.07" traveltime="1.71" overlapTraveltime="2.32" density="28.23" overlapDensity="39.31" laneDensity="28.23" occupancy="9.47" waitingTime="4.00" timeLoss="40.50" speed="4.50" speedRelative="0.32" departed="7" arrived="0" entered="35" left="42" laneChangedFrom="0" laneChangedTo="0" flow="431.95"/>
        <edge id="-1125912916#2" sampledSeconds="49.07" traveltime="1.99" overlapTraveltime="2.29" density="9.77" overlapDensity="11.50" laneDensity="9.77" occupancy="2.47" waitingTime="1.00" timeLoss="10.98" speed="7.17" speedRelative="0.52" departed="0" arrived="0" entered="21" left="21" laneChangedFrom="0" laneChangedTo="0" flow="244.66"/>
        <edge id="-1125912916#3" sampledSeconds="114.72" traveltime="5.24" overlapTraveltime="5.52" density="12.00" overlapDensity="12.75" laneDensity="12.00" occupancy="2.98" waitingTime="1.00" timeLoss="43.07" speed="5.76" speedRelative="0.41" departed="7" arrived="0" entered="14" left="21" laneChangedFrom="0" laneChangedTo="0" flow="239.90"/>
        <edge id="-1149027724" sampledSeconds="0.00" departed="0" arrived="0" entered="0" left="0" laneChangedFrom="0" laneChangedTo="0"/>
        <edge id="-1156915072#0" sampledSeconds="831.17" traveltime="12.32" overlapTraveltime="13.21" density="76.19" overlapDensity="81.22" laneDensity="76.19" occupancy="29.49" waitingTime="260.00" timeLoss="631.90" speed="2.80" speedRelative="0.20" departed="2" arrived="0" entered="63" left="62" laneChangedFrom="0" laneChangedTo="0" flow="737.13"/>
        <edge id="-1156915072#1" sampledSeconds="373.56" traveltime="6.03" overlapTraveltime="6.67" density="67.45" overlapDensity="74.35" laneDensity="67.45" occupancy="23.50" waitingTime="160.00" timeLoss="293.64" speed="2.98" speedRelative="0.21" departed="0" arrived="0" entered="57" left="55" laneChangedFrom="0" laneChangedTo="0" flow="654.47"/>
        <edge id="-1156915072#2" sampledSeconds="132.52" traveltime="7.62" overlapTraveltime="4.11" density="73.54" overlapDensity="106.42" laneDensity="73.54" occupancy="23.60" waitingTime="72.00" timeLoss="116.54" speed="1.67" speedRelative="0.12" departed="51" arrived="0" entered="0" left="51" laneChangedFrom="0" laneChangedTo="0" flow="140.04"/>
        <edge id="-1156915074" sampledSeconds="0.00" departed="0" arrived="0" entered="0" left="0" laneChangedFrom="0" laneChangedTo="0"/>
        <edge id="-1163294283" sampledSeconds="114.12" traveltime="16.43" overlapTraveltime="17.04" density="9.39" overlapDensity="9.76" laneDensity="9.39" occupancy="1.53" waitingTime="15.00" timeLoss="66.28" speed="2.32" speedRelative="0.17" departed="7" arrived="0" entered="0" left="7" laneChangedFrom="0" laneChangedTo="0" flow="77.89"/>
        <edge id="-1183389476#0" sampledSeconds="170.03" traveltime="3.91" overlapTraveltime="6.41" density="476.19" overlapDensity="476.19" laneDensity="476.19" occupancy="33.39" waitingTime="136.00" timeLoss="155.49" speed="0.73" speedRelative="0.05" departed="7" arrived="0" entered="34" left="40" laneChangedFrom="0" laneChangedTo="0" flow="87.60"/>
        <edge id="-1183389476#1" sampledSeconds="29.74" traveltime="0.04" overlapTraveltime="1.08" density="24.38" overlapDensity="476.19" laneDensity="24.38" occupancy="9.13" waitingTime="0.00" timeLoss="19.03" speed="3.83" speedRelative="0.28" departed="0" arrived="0" entered="34" left="34" laneChangedFrom="0" laneChangedTo="0" flow="396.12"/>
        <edge id="-1183389476#2" sampledSeconds="20.90" traveltime="0.05" overlapTraveltime="0.92" density="21.92" overlapDensity="338.25" laneDensity="21.92" occupancy="6.35" waitingTime="0.00" timeLoss="12.00" speed="4.37" speedRelative="0.31" departed="0" arrived="0" entered="27" left="27" laneChangedFrom="0" laneChangedTo="0" flow="314.56"/>
        <edge id="-1183389476#3" sampledSeconds="32.86" traveltime="0.87" overlapTraveltime="1.59" density="18.56" overlapDensity="33.23" laneDensity="18.56" occupancy="5.41" waitingTime="3.00" timeLoss="19.44" speed="4.18" speedRelative="0.30" departed="0" arrived="0" entered="21" left="21" laneChangedFrom="0" laneChangedTo="0" flow="244.66"/>
        <edge id="-1183389476#4" sampledSeconds="14.80" traveltime="0.04" overlapTraveltime="0.86" density="14.13" overlapDensity="239.50" laneDensity="14.13" occupancy="4.52" waitingTime="0.00" timeLoss="8.17" speed="5.01" speedRelative="0.36" departed="0" arrived="0" entered="21" left="21" laneChangedFrom="0" laneChangedTo="0" flow="244.66"/>
        <edge id="-1188778649" sampledSeconds="0.00" departed="0" arrived="0" entered="0" left="0" laneChangedFrom="0" laneChangedTo="0"/>
        <edge id="-118915928#1" sampledSeconds="611.44" traveltime="29.61" overlapTraveltime="30.08" density="7.21" overlapDensity="7.31" laneDensity="7.21" occupancy="2.24" waitingTime="1.00" timeLoss="199.93" speed="9.10" speedRelative="0.65" departed="21" arrived="0" entered="0" left="17" laneChangedFrom="0" laneChangedTo="0" flow="237.13"/>
        <edge id="-118915930" sampledSeconds="0.00" departed="0" arrived="0" entered="0" left="0" laneChangedFrom="0" laneChangedTo="0"/>
        <edge id="-118915931#1" sampledSeconds="1813.71" traveltime="93.84" overlapTraveltime="96.07" density="94.43" overlapDensity="95.10" laneDensity="94.43" occupancy="37.27" waitingTime="1370.00" timeLoss="1717.04" speed="0.68" speedRelative="0.05" departed="0" arrived="0" entered="22" left="15" laneChangedFrom="0" laneChangedTo="0" flow="223.58"/>
        <edge id="-118915931#2" sampledSeconds="449.60" traveltime="33.36" overlapTraveltime="33.99" density="32.43" overlapDensity="32.95" laneDensity="32.43" occupancy="10.58" waitingTime="322.00" timeLoss="403.77" speed="1.40" speedRelative="0.10" departed="0" arrived="0" entered="16" left="10" laneChangedFrom="0" laneChangedTo="0" flow="154.54"/>
        <edge id="-118915931#3" sampledSeconds="89.54" traveltime="6.46" overlapTraveltime="6.77" density="4.42" overlapDensity="4.65" laneDensity="4.42" occupancy="1.62" waitingTime="0.00" timeLoss="26.00" speed="9.74" speedRelative="0.70" departed="14" arrived="0" entered="0" left="14" laneChangedFrom="0" laneChangedTo="0" flow="153.43"/>
        <edge id="-118915934" sampledSeconds="0.00" departed="0" arrived="0" entered="0" left="0" laneChangedFrom="0" laneChangedTo="0"/>
        <edge id="-118915940#0" sampledSeconds="66.42" traveltime="13.04" overlapTraveltime="13.74" density="6.17" overlapDensity="6.26" laneDensity="6.17" occupancy="1.34" waitingTime="28.00" timeLoss="52.47" speed="2.66" speedRelative="0.19" departed="0" arrived="0" entered="7" left="2" laneChangedFrom="0" laneChangedTo="0" flow="58.44"/>
        <edge id="-118915940#1" sampledSeconds="8.29" traveltime="3.92" overlapTraveltime="4.41" density="0.76" overlapDensity="0.80" laneDensity="0.76" occupancy="0.34" waitingTime="0.00" timeLoss="2.97" speed="8.74" speedRelative="0.63" departed="0" arrived="2" entered="2" left="0" laneChangedFrom="0" laneChangedTo="0" flow="23.30"/>
        <edge id="-118915964#0" sampledSeconds="440.08" traveltime="32.10" overlapTraveltime="32.46" density="15.61" overlapDensity="15.68" laneDensity="15.61" occupancy="3.43" waitingTime="307.00" timeLoss="344.70" speed="2.87" speedRelative="0.21" departed="0" arrived="0" entered="14" left="10" laneChangedFrom="0" laneChangedTo="0" flow="158.98"/>
        <edge id="-118915964#1" sampledSeconds="74.45" traveltime="5.36" overlapTraveltime="5.57" density="4.77" overlapDensity="4.97" laneDensity="4.77" occupancy="1.07" waitingTime="0.00" timeLoss="23.24" speed="9.10" speedRelative="0.66" departed="14" arrived="0" entered="0" left="14" laneChangedFrom="0" laneChangedTo="0" flow="155.37"/>
        <edge id="-118915966#0" sampledSeconds="30.57" traveltime="4.05" overlapTraveltime="4.43" density="1.70" overlapDensity="1.83" laneDensity="1.70" occupancy="0.85" waitingTime="0.00" timeLoss="2.33" speed="13.33" speedRelative="0.96" departed="0" arrived="7" entered="7" left="0" laneChangedFrom="0" laneChangedTo="0" flow="81.55"/>
        <edge id="-118915966#1" sampledSeconds="89.31" traveltime="6.07" overlapTraveltime="6.48" density="5.84" overlapDensity="6.29" laneDensity="5.84" occupancy="1.87" waitingTime="0.00" timeLoss="38.60" speed="7.58" speedRelative="0.55" departed="7" arrived="0" entered="7" left="14" laneChangedFrom="0" laneChangedTo="0" flow="159.02"/>
        <edge id="-118915966#2" sampledSeconds="42.13" traveltime="3.98" overlapTraveltime="4.68" density="3.32" overlapDensity="3.91" laneDensity="3.32" occupancy="1.68" waitingTime="0.00" timeLoss="12.51" speed="8.52" speedRelative="0.61" departed="0" arrived="0" entered="9" left="9" laneChangedFrom="0" laneChangedTo="0" flow="104.85"/>
        <edge id="-1190968366#0" sampledSeconds="0.00" departed="0" arrived="0" entered="0" left="0" laneChangedFrom="0" laneChangedTo="0"/>
        <edge id="-1190968366#1" sampledSeconds="0.00" departed="0" arrived="0" entered="0" left="0" laneChangedFrom="0" laneChangedTo="0"/>
        <edge id="-1190968366#2" sampledSeconds="0.00" departed="0" arrived="0" entered="0" left="0" laneChangedFrom="0" laneChangedTo="0"/>
        <edge id="-1190968366#3" sampledSeconds="0.00" departed="0" arrived="0" entered="0" left="0" laneChangedFrom="0" laneChangedTo="0"/>
        <edge id="-1190968366#4" sampledSeconds="0.00" departed="0" arrived="0" entered="0" left="0" laneChangedFrom="0" laneChangedTo="0"/>
        <edge id="-1190968366#5" sampledSeconds="0.00" departed="0" arrived="0" entered="0" left="0" laneChangedFrom="0" laneChangedTo="0"/>
        <edge id="-1191966697" sampledSeconds="0.00" departed="0" arrived="0" entered="0" left="0" laneChangedFrom="0" laneChangedTo="0"/>
        <edge id="-1191966698" sampledSeconds="5.53" traveltime="1.89" overlapTraveltime="2.76" density="1.00" overlapDensity="1.47" laneDensity="1.00" occupancy="0.50" waitingTime="0.00" timeLoss="2.31" speed="6.22" speedRelative="0.45" departed="0" arrived="0" entered="2" left="2" laneChangedFrom="0" laneChangedTo="0" flow="23.30"/>
        <edge id="-1191966699" sampledSeconds="0.00" departed="0" arrived="0" entered="0" left="0" laneChangedFrom="0" laneChangedTo="0"/>
        <edge id="-1191966700" sampledSeconds="7.18" traveltime="0.70" overlapTraveltime="1.03" density="5.12" overlapDensity="7.47" laneDensity="5.12" occupancy="0.79" waitingTime="0.00" timeLoss="1.42" speed="4.59" speedRelative="0.33" departed="0" arrived="0" entered="7" left="7" laneChangedFrom="0" laneChangedTo="0" flow="81.55"/>