<?xml version="1.0" encoding="UTF-8"?>

<!-- generated on 2026-02-07T11:45:10.917842+07:00 by Eclipse SUMO sumo v1_25_0+0904-59bbc76848e
<sumoConfiguration xmlns:xsi="http://www.w3.org/2001/XMLSchema-instance" xsi:noNamespaceSchemaLocation="http://sumo.dlr.de/xsd/sumoConfiguration.xsd">

    <input>
        <net-file value="maps/CTU_map/osm.net.xml.gz"/>
        <route-files value="maps/CTU_map/osm.bicycle.trips.xml,maps/CTU_map/osm.motorcycle.trips.xml,maps/CTU_map/osm.passenger.trips.xml,maps/CTU_map/osm.pedestrian.rou.xml"/>
        <additional-files value="maps/CTU_map/osm.poly.xml.gz,maps/CTU_map/output.add.xml"/>
    </input>

    <output>
        <tripinfo-output value="maps/CTU_map/tripinfos.xml"/>
        <statistic-output value="maps/CTU_map/stats.xml"/>
    </output>

    <processing>
        <ignore-route-errors value="true"/>
        <scale value="7.0"/>
        <tls.actuated.jam-threshold value="30"/>
    </processing>

    <routing>
        <device.rerouting.adaptation-steps value="18"/>
        <device.rerouting.adaptation-interval value="10"/>
    </routing>

    <report>
        <verbose value="true"/>
        <no-warnings value="true"/>
        <no-step-log value="true"/>
    </report>

    <emissions>
        <device.emissions.probability value="1.0"/>
    </emissions>

    <traci_server>
        <remote-port value="41401"/>
    </traci_server>

    <gui_only>
        <gui-settings-file value="maps/CTU_map/osm.view.xml"/>
        <quit-on-end value="true"/>
        <start value="true"/>
        <delay value="20"/>
    </gui_only>

</sumoConfiguration>
-->

<meandata xmlns:xsi="http://www.w3.org/2001/XMLSchema-instance" xsi:noNamespaceSchemaLocation="http://sumo.dlr.de/xsd/meandata_file.xsd">
    <interval begin="0.00" end="301.00" id="wizard_example">
        <edge id="-1006436797#0" sampledSeconds="72.20" traveltime="10.45" overlapTraveltime="10.77" density="5.99" overlapDensity="6.18" laneDensity="5.99" occupancy="0.97" waitingTime="1.00" timeLoss="22.33" speed="3.75" speedRelative="0.68" departed="7" arrived="0" entered="0" left="7" laneChangedFrom="0" laneChangedTo="0" flow="80.05"/>
        <edge id="-1006436797#1" sampledSeconds="0.00" departed="0" arrived="0" entered="0" left="0" laneChangedFrom="0" laneChangedTo="0"/>
        <edge id="-1006436797#2" sampledSeconds="2.20" traveltime="1.94" overlapTraveltime="2.20" density="0.56" overlapDensity="0.64" laneDensity="0.56" occupancy="0.09" waitingTime="0.00" timeLoss="0.14" speed="5.95" speedRelative="1.07" departed="0" arrived="0" entered="1" left="1" laneChangedFrom="0" laneChangedTo="0" flow="11.96"/>
        <edge id="-1006436797#3" sampledSeconds="8.20" traveltime="3.79" overlapTraveltime="4.10" density="1.27" overlapDensity="1.38" laneDensity="1.27" occupancy="0.20" waitingTime="0.00" timeLoss="0.54" speed="5.22" speedRelative="0.94" departed="0" arrived="0" entered="2" left="2" laneChangedFrom="0" laneChangedTo="0" flow="23.92"/>
        <edge id="-1006436797#4" sampledSeconds="6.05" overlapTraveltime="2.49" density="0.00" overlapDensity="25.45" laneDensity="0.00" occupancy="1.76" waitingTime="1.00" timeLoss="4.88" speed="0.96" speedRelative="0.17" departed="4" arrived="0" entered="0" left="4" laneChangedFrom="0" laneChangedTo="0" flow="0.00"/>
        <edge id="-1006436798" sampledSeconds="74.04" traveltime="10.22" overlapTraveltime="10.58" density="4.81" overlapDensity="4.98" laneDensity="4.81" occupancy="0.77" waitingTime="0.00" timeLoss="7.96" speed="4.82" speedRelative="0.87" departed="0" arrived="0" entered="7" left="7" laneChangedFrom="0" laneChangedTo="0" flow="83.72"/>
        <edge id="-1006436799#0" sampledSeconds="0.00" departed="0" arrived="0" entered="0" left="0" laneChangedFrom="0" laneChangedTo="0"/>
        <edge id="-1006436799#1" sampledSeconds="0.35" traveltime="0.07" overlapTraveltime="0.35" density="0.58" overlapDensity="2.98" laneDensity="0.58" occupancy="0.09" waitingTime="0.00" timeLoss="0.04" speed="5.70" speedRelative="1.02" departed="0" arrived="0" entered="1" left="1" laneChangedFrom="0" laneChangedTo="0" flow="11.96"/>
        <edge id="-1006436802#0" sampledSeconds="2.88" traveltime="1.26" overlapTraveltime="1.56" density="1.43" overlapDensity="1.63" laneDensity="1.43" occupancy="0.21" waitingTime="0.00" timeLoss="0.44" speed="4.79" speedRelative="0.86" departed="0" arrived="2" entered="2" left="0" laneChangedFrom="0" laneChangedTo="0" flow="23.92"/>
        <edge id="-1006436802#1" sampledSeconds="0.00" departed="0" arrived="0" entered="0" left="0" laneChangedFrom="0" laneChangedTo="0"/>
        <edge id="-1006436820" sampledSeconds="0.00" departed="0" arrived="0" entered="0" left="0" laneChangedFrom="0" laneChangedTo="0"/>
        <edge id="-1049200866" sampledSeconds="578.51" traveltime="25.16" overlapTraveltime="26.79" density="49.60" overlapDensity="51.12" laneDensity="49.60" occupancy="22.22" waitingTime="330.00" timeLoss="500.41" speed="1.57" speedRelative="0.11" departed="25" arrived="0" entered="1" left="23" laneChangedFrom="0" laneChangedTo="0" teleported="1" flow="266.86"/>
        <edge id="-1050341200" sampledSeconds="0.00" departed="0" arrived="0" entered="0" left="0" laneChangedFrom="0" laneChangedTo="0"/>
        <edge id="-1060989491" sampledSeconds="0.00" departed="0" arrived="0" entered="0" left="0" laneChangedFrom="0" laneChangedTo="0"/>
        <edge id="-1060989493#0" sampledSeconds="163.12" traveltime="7.38" overlapTraveltime="7.77" density="13.85" overlapDensity="14.56" laneDensity="13.85" occupancy="2.23" waitingTime="0.00" timeLoss="17.31" speed="5.00" speedRelative="0.90" departed="0" arrived="0" entered="21" left="21" laneChangedFrom="0" laneChangedTo="0" flow="251.16"/>
        <edge id="-1060989493#1" sampledSeconds="159.98" traveltime="7.32" overlapTraveltime="7.62" density="13.32" overlapDensity="13.87" laneDensity="13.32" occupancy="2.13" waitingTime="0.00" timeLoss="12.40" speed="5.24" speedRelative="0.94" departed="0" arrived="0" entered="21" left="21" laneChangedFrom="0" laneChangedTo="0" flow="251.16"/>
        <edge id="-1060989493#2" sampledSeconds="121.59" traveltime="5.32" overlapTraveltime="5.79" density="18.21" overlapDensity="19.83" laneDensity="18.21" occupancy="2.95" waitingTime="14.00" timeLoss="40.09" speed="3.79" speedRelative="0.68" departed="0" arrived="0" entered="21" left="21" laneChangedFrom="0" laneChangedTo="0" flow="251.16"/>
        <edge id="-1060989493#3" sampledSeconds="66.70" traveltime="2.63" overlapTraveltime="3.18" density="14.98" overlapDensity="18.06" laneDensity="14.98" occupancy="2.45" waitingTime="1.00" timeLoss="15.54" speed="4.37" speedRelative="0.79" departed="0" arrived="0" entered="21" left="21" laneChangedFrom="0" laneChangedTo="0" flow="251.16"/>
        <edge id="-1060989493#4" sampledSeconds="204.77" traveltime="8.90" overlapTraveltime="9.75" density="16.09" overlapDensity="17.62" laneDensity="16.09" occupancy="2.67" waitingTime="4.00" timeLoss="56.45" speed="4.12" speedRelative="0.74" departed="0" arrived="0" entered="21" left="21" laneChangedFrom="0" laneChangedTo="0" flow="251.16"/>
        <edge id="-1060989493#5" sampledSeconds="61.24" traveltime="1.85" overlapTraveltime="2.19" density="18.70" overlapDensity="22.09" laneDensity="18.70" occupancy="3.00" waitingTime="0.00" timeLoss="8.34" speed="4.94" speedRelative="0.89" departed="0" arrived="0" entered="28" left="28" laneChangedFrom="0" laneChangedTo="0" flow="334.88"/>
        <edge id="-1060989493#7" sampledSeconds="158.20" traveltime="6.75" overlapTraveltime="7.53" density="15.36" overlapDensity="17.15" laneDensity="15.36" occupancy="2.60" waitingTime="15.00" timeLoss="38.78" speed="4.28" speedRelative="0.77" departed="0" arrived="0" entered="21" left="21" laneChangedFrom="0" laneChangedTo="0" flow="251.16"/>
        <edge id="-1060989493#8" sampledSeconds="109.56" traveltime="7.52" overlapTraveltime="7.83" density="9.14" overlapDensity="9.51" laneDensity="9.14" occupancy="1.46" waitingTime="0.00" timeLoss="12.47" speed="5.10" speedRelative="0.92" departed="0" arrived="0" entered="14" left="14" laneChangedFrom="0" laneChangedTo="0" flow="167.44"/>
        <edge id="-1060989493#9" sampledSeconds="36.08" traveltime="4.43" overlapTraveltime="5.15" density="13.12" overlapDensity="15.25" laneDensity="13.12" occupancy="2.18" waitingTime="8.00" timeLoss="24.68" speed="1.84" speedRelative="0.33" departed="0" arrived="0" entered="7" left="7" laneChangedFrom="0" laneChangedTo="0" flow="83.72"/>
        <edge id="-1060989494#0" sampledSeconds="19.86" traveltime="2.34" overlapTraveltime="2.84" density="9.26" overlapDensity="11.22" laneDensity="9.26" occupancy="1.55" waitingTime="3.00" timeLoss="10.85" speed="2.64" speedRelative="0.47" departed="0" arrived="0" entered="7" left="7" laneChangedFrom="0" laneChangedTo="0" flow="83.72"/>
        <edge id="-1060989494#1" sampledSeconds="114.38" traveltime="15.86" overlapTraveltime="16.34" density="4.54" overlapDensity="4.67" laneDensity="4.54" occupancy="0.73" waitingTime="1.00" timeLoss="14.51" speed="5.07" speedRelative="0.91" departed="0" arrived="0" entered="7" left="7" laneChangedFrom="0" laneChangedTo="0" flow="83.72"/>
        <edge id="-1060989494#2" sampledSeconds="49.36" traveltime="6.74" overlapTraveltime="7.05" density="4.43" overlapDensity="4.63" laneDensity="4.43" occupancy="0.71" waitingTime="0.00" timeLoss="4.76" speed="5.25" speedRelative="0.94" departed="0" arrived="0" entered="7" left="7" laneChangedFrom="0" laneChangedTo="0" flow="83.72"/>
        <edge id="-1060989494#3" sampledSeconds="0.00" departed="0" arrived="0" entered="0" left="0" laneChangedFrom="0" laneChangedTo="0"/>
        <edge id="-1060989495#0" sampledSeconds="23.54" traveltime="3.06" overlapTraveltime="3.36" density="4.50" overlapDensity="4.94" laneDensity="4.50" occupancy="0.72" waitingTime="0.00" timeLoss="1.28" speed="5.18" speedRelative="0.93" departed="0" arrived="0" entered="7" left="7" laneChangedFrom="0" laneChangedTo="0" flow="83.72"/>
        <edge id="-1060989495#1" sampledSeconds="18.08" traveltime="2.26" overlapTraveltime="2.58" density="4.81" overlapDensity="5.51" laneDensity="4.81" occupancy="0.77" waitingTime="0.00" timeLoss="2.10" speed="4.84" speedRelative="0.87" departed="0" arrived="0" entered="7" left="7" laneChangedFrom="0" laneChangedTo="0" flow="83.72"/>
        <edge id="-1060989496#0" sampledSeconds="0.00" departed="0" arrived="0" entered="0" left="0" laneChangedFrom="0" laneChangedTo="0"/>
        <edge id="-1060989496#1" sampledSeconds="0.00" departed="0" arrived="0" entered="0" left="0" laneChangedFrom="0" laneChangedTo="0"/>
        <edge id="-1060989496#2" sampledSeconds="0.00" departed="0" arrived="0" entered="0" left="0" laneChangedFrom="0" laneChangedTo="0"/>
        <edge id="-1060989496#3" sampledSeconds="0.00" departed="0" arrived="0" entered="0" left="0" laneChangedFrom="0" laneChangedTo="0"/>
        <edge id="-1060989496#4" sampledSeconds="0.00" departed="0" arrived="0" entered="0" left="0" laneChangedFrom="0" laneChangedTo="0"/>
        <edge id="-1061007736#0" sampledSeconds="0.00" departed="0" arrived="0" entered="0" left="0" laneChangedFrom="0" laneChangedTo="0"/>
        <edge id="-1061007736#1" sampledSeconds="115.28" traveltime="17.34" overlapTraveltime="17.64" density="4.30" overlapDensity="4.35" laneDensity="4.30" occupancy="0.69" waitingTime="0.00" timeLoss="9.54" speed="5.08" speedRelative="0.91" departed="0" arrived="5" entered="7" left="0" laneChangedFrom="0" laneChangedTo="0" flow="78.49"/>
        <edge id="-1061007736#2" sampledSeconds="25.62" traveltime="3.32" overlapTraveltime="3.66" density="5.02" overlapDensity="5.54" laneDensity="5.02" occupancy="0.81" waitingTime="0.00" timeLoss="4.09" speed="4.63" speedRelative="0.83" departed="0" arrived="0" entered="7" left="7" laneChangedFrom="0" laneChangedTo="0" flow="83.72"/>
        <edge id="-1061007736#3" sampledSeconds="24.75" traveltime="3.21" overlapTraveltime="3.54" density="4.90" overlapDensity="5.40" laneDensity="4.90" occupancy="0.79" waitingTime="0.00" timeLoss="3.40" speed="4.76" speedRelative="0.86" departed="0" arrived="0" entered="7" left="7" laneChangedFrom="0" laneChangedTo="0" flow="83.72"/>
        <edge id="-1061007736#4" sampledSeconds="26.42" traveltime="3.45" overlapTraveltime="3.77" density="4.87" overlapDensity="5.34" laneDensity="4.87" occupancy="0.78" waitingTime="0.00" timeLoss="3.51" speed="4.78" speedRelative="0.86" departed="0" arrived="0" entered="7" left="7" laneChangedFrom="0" laneChangedTo="0" flow="83.72"/>
        <edge id="-1061007736#5" sampledSeconds="23.52" traveltime="3.03" overlapTraveltime="3.36" density="4.70" overlapDensity="5.21" laneDensity="4.70" occupancy="0.75" waitingTime="0.00" timeLoss="2.44" speed="4.94" speedRelative="0.89" departed="0" arrived="0" entered="7" left="7" laneChangedFrom="0" laneChangedTo="0" flow="83.72"/>
        <edge id="-1061007736#6" sampledSeconds="25.74" traveltime="3.35" overlapTraveltime="3.68" density="4.71" overlapDensity="5.17" laneDensity="4.71" occupancy="0.76" waitingTime="0.00" timeLoss="2.73" speed="4.93" speedRelative="0.89" departed="0" arrived="0" entered="7" left="7" laneChangedFrom="0" laneChangedTo="0" flow="83.72"/>
        <edge id="-1061007736#7" sampledSeconds="24.59" traveltime="3.19" overlapTraveltime="3.51" density="4.72" overlapDensity="5.19" laneDensity="4.72" occupancy="0.76" waitingTime="0.00" timeLoss="2.59" speed="4.93" speedRelative="0.89" departed="0" arrived="0" entered="7" left="7" laneChangedFrom="0" laneChangedTo="0" flow="83.72"/>
        <edge id="-1061007736#8" sampledSeconds="21.88" traveltime="2.81" overlapTraveltime="3.13" density="4.55" overlapDensity="5.06" laneDensity="4.55" occupancy="0.73" waitingTime="0.00" timeLoss="1.62" speed="5.11" speedRelative="0.92" departed="0" arrived="0" entered="7" left="7" laneChangedFrom="0" laneChangedTo="0" flow="83.72"/>
        <edge id="-1061007736#9" sampledSeconds="8.29" traveltime="0.84" overlapTraveltime="1.18" density="5.86" overlapDensity="8.29" laneDensity="5.86" occupancy="0.89" waitingTime="0.00" timeLoss="2.04" speed="4.16" speedRelative="0.75" departed="0" arrived="0" entered="7" left="7" laneChangedFrom="0" laneChangedTo="0" flow="83.72"/>
        <edge id="-1061341066" sampledSeconds="0.00" departed="0" arrived="0" entered="0" left="0" laneChangedFrom="0" laneChangedTo="0"/>
        <edge id="-1061341067#0" sampledSeconds="0.00" departed="0" arrived="0" entered="0" left="0" laneChangedFrom="0" laneChangedTo="0"/>
        <edge id="-1061341067#1" sampledSeconds="0.00" departed="0" arrived="0" entered="0" left="0" laneChangedFrom="0" laneChangedTo="0"/>
        <edge id="-1081677329" sampledSeconds="0.00" departed="0" arrived="0" entered="0" left="0" laneChangedFrom="0" laneChangedTo="0"/>
        <edge id="-1081677330" sampledSeconds="0.00" departed="0" arrived="0" entered="0" left="0" laneChangedFrom="0" laneChangedTo="0"/>
        <edge id="-1081681931" sampledSeconds="0.00" departed="0" arrived="0" entered="0" left="0" laneChangedFrom="0" laneChangedTo="0"/>
        <edge id="-108179183#0" sampledSeconds="0.00" departed="0" arrived="0" entered="0" left="0" laneChangedFrom="0" laneChangedTo="0"/>
        <edge id="-108179183#1" sampledSeconds="0.00" departed="0" arrived="0" entered="0" left="0" laneChangedFrom="0" laneChangedTo="0"/>
        <edge id="-108179183#2" sampledSeconds="0.00" departed="0" arrived="0" entered="0" left="0" laneChangedFrom="0" laneChangedTo="0"/>
        <edge id="-108179314" sampledSeconds="0.00" departed="0" arrived="0" entered="0" left="0" laneChangedFrom="0" laneChangedTo="0"/>
        <edge id="-108534913#0" sampledSeconds="0.00" departed="0" arrived="0" entered="0" left="0" laneChangedFrom="0" laneChangedTo="0"/>
        <edge id="-108534913#1" sampledSeconds="45.56" traveltime="4.71" overlapTraveltime="5.06" density="6.19" overlapDensity="6.65" laneDensity="6.19" occupancy="0.99" waitingTime="0.00" timeLoss="7.34" speed="4.81" speedRelative="0.35" departed="0" arrived="0" entered="9" left="9" laneChangedFrom="0" laneChangedTo="0" flow="107.64"/>
        <edge id="-108534913#2" sampledSeconds="39.71" traveltime="19.52" overlapTraveltime="19.86" density="1.41" overlapDensity="1.44" laneDensity="1.41" occupancy="0.23" waitingTime="0.00" timeLoss="6.29" speed="4.71" speedRelative="0.34" departed="0" arrived="0" entered="2" left="2" laneChangedFrom="0" laneChangedTo="0" flow="23.92"/>
        <edge id="-108534913#3" sampledSeconds="10.44" traveltime="4.88" overlapTraveltime="5.22" density="1.41" overlapDensity="1.50" laneDensity="1.41" occupancy="0.22" waitingTime="0.00" timeLoss="1.62" speed="4.72" speedRelative="0.34" departed="0" arrived="0" entered="2" left="2" laneChangedFrom="0" laneChangedTo="0" flow="23.92"/>
        <edge id="-108534913#4" sampledSeconds="27.68" traveltime="13.50" overlapTraveltime="13.84" density="1.41" overlapDensity="1.45" laneDensity="1.41" occupancy="0.23" waitingTime="0.00" timeLoss="4.40" speed="4.70" speedRelative="0.34" departed="0" arrived="0" entered="2" left="2" laneChangedFrom="0" laneChangedTo="0" flow="23.92"/>
        <edge id="-108534913#5" sampledSeconds="27.20" traveltime="13.26" overlapTraveltime="13.60" density="1.41" overlapDensity="1.45" laneDensity="1.41" occupancy="0.23" waitingTime="0.00" timeLoss="4.28" speed="4.71" speedRelative="0.34" departed="0" arrived="0" entered="2" left="2" laneChangedFrom="0" laneChangedTo="0" flow="23.92"/>
        <edge id="-108534913#6" sampledSeconds="61.54" traveltime="0.04" overlapTraveltime="15.19" density="1.36" overlapDensity="476.19" laneDensity="1.36" occupancy="20.38" waitingTime="52.00" timeLoss="59.14" speed="0.16" speedRelative="0.01" departed="3" arrived="0" entered="2" left="5" laneChangedFrom="0" laneChangedTo="0" flow="23.92"/>
        <edge id="-1125729965#0" sampledSeconds="0.00" departed="0" arrived="0" entered="0" left="0" laneChangedFrom="0" laneChangedTo="0"/>
        <edge id="-1125729965#1" sampledSeconds="0.00" departed="0" arrived="0" entered="0" left="0" laneChangedFrom="0" laneChangedTo="0"/>
        <edge id="-1125729966" sampledSeconds="86.01" traveltime="11.78" overlapTraveltime="12.29" density="16.30" overlapDensity="17.00" laneDensity="16.30" occupancy="2.63" waitingTime="53.00" timeLoss="62.48" speed="1.50" speedRelative="0.27" departed="0" arrived="0" entered="7" left="7" laneChangedFrom="0" laneChangedTo="0" flow="83.72"/>
        <edge id="-1125912866" sampledSeconds="1119.53" traveltime="28.63" overlapTraveltime="29.94" density="97.05" overlapDensity="98.50" laneDensity="97.05" occupancy="32.95" waitingTime="786.00" timeLoss="980.58" speed="1.38" speedRelative="0.10" departed="0" arrived="0" entered="42" left="36" laneChangedFrom="0" laneChangedTo="0" flow="460.83"/>
        <edge id="-1125912867" sampledSeconds="176.14" traveltime="5.80" overlapTraveltime="7.30" density="152.17" overlapDensity="173.13" laneDensity="152.17" occupancy="37.15" waitingTime="123.00" timeLoss="152.98" speed="0.96" speedRelative="0.07" departed="0" arrived="0" entered="27" left="26" laneChangedFrom="0" laneChangedTo="0" flow="319.38"/>
        <edge id="-1125912916#0" sampledSeconds="47.53" traveltime="0.87" overlapTraveltime="1.21" density="18.43" overlapDensity="25.22" laneDensity="18.43" occupancy="4.80" waitingTime="0.00" timeLoss="14.82" speed="7.63" speedRelative="0.55" departed="0" arrived="0" entered="40" left="39" laneChangedFrom="0" laneChangedTo="0" flow="478.05"/>
        <edge id="-1125912916#1" sampledSeconds="84.08" traveltime="1.67" overlapTraveltime="2.26" density="28.11" overlapDensity="38.53" laneDensity="28.11" occupancy="9.07" waitingTime="4.00" timeLoss="37.83" speed="4.58" speedRelative="0.33" departed="6" arrived="0" entered="35" left="41" laneChangedFrom="0" laneChangedTo="0" flow="439.89"/>
        <edge id="-1125912916#2" sampledSeconds="49.07" traveltime="1.99" overlapTraveltime="2.29" density="10.03" overlapDensity="11.80" laneDensity="10.03" occupancy="2.53" waitingTime="1.00" timeLoss="10.98" speed="7.17" speedRelative="0.52" departed="0" arrived="0" entered="21" left="21" laneChangedFrom="0" laneChangedTo="0" flow="251.16"/>
        <edge id="-1125912916#3" sampledSeconds="114.72" traveltime="5.24" overlapTraveltime="5.52" density="12.32" overlapDensity="13.09" laneDensity="12.32" occupancy="3.06" waitingTime="1.00" timeLoss="43.07" speed="5.76" speedRelative="0.41" departed="7" arrived="0" entered="14" left="21" laneChangedFrom="0" laneChangedTo="0" flow="246.28"/>
        <edge id="-1149027724" sampledSeconds="0.00" departed="0" arrived="0" entered="0" left="0" laneChangedFrom="0" laneChangedTo="0"/>
        <edge id="-1156915072#0" sampledSeconds="800.34" traveltime="12.44" overlapTraveltime="13.33" density="75.31" overlapDensity="80.28" laneDensity="75.31" occupancy="29.56" waitingTime="259.00" timeLoss="609.77" speed="2.78" speedRelative="0.20" departed="2" arrived="0" entered="60" left="59" laneChangedFrom="0" laneChangedTo="0" flow="722.00"/>
        <edge id="-1156915072#1" sampledSeconds="356.43" traveltime="6.06" overlapTraveltime="6.67" density="66.25" overlapDensity="72.83" laneDensity="66.25" occupancy="23.46" waitingTime="160.00" timeLoss="279.79" speed="2.99" speedRelative="0.22" departed="0" arrived="0" entered="54" left="53" laneChangedFrom="0" laneChangedTo="0" flow="640.04"/>
        <edge id="-1156915072#2" sampledSeconds="126.29" traveltime="8.00" overlapTraveltime="4.16" density="73.59" overlapDensity="104.11" laneDensity="73.59" occupancy="22.80" waitingTime="72.00" timeLoss="111.33" speed="1.64" speedRelative="0.12" departed="47" arrived="0" entered="0" left="47" laneChangedFrom="0" laneChangedTo="0" flow="133.49"/>
        <edge id="-1156915074" sampledSeconds="0.00" departed="0" arrived="0" entered="0" left="0" laneChangedFrom="0" laneChangedTo="0"/>
        <edge id="-1163294283" sampledSeconds="114.12" traveltime="16.43" overlapTraveltime="17.04" density="9.64" overlapDensity="10.02" laneDensity="9.64" occupancy="1.58" waitingTime="15.00" timeLoss="66.28" speed="2.32" speedRelative="0.17" departed="7" arrived="0" entered="0" left="7" laneChangedFrom="0" laneChangedTo="0" flow="79.96"/>
        <edge id="-1183389476#0" sampledSeconds="162.03" traveltime="3.68" overlapTraveltime="6.08" density="476.19" overlapDensity="476.19" laneDensity="476.19" occupancy="32.96" waitingTime="128.00" timeLoss="147.49" speed="0.77" speedRelative="0.06" departed="7" arrived="0" entered="34" left="40" laneChangedFrom="0" laneChangedTo="0" flow="93.29"/>
        <edge id="-1183389476#1" sampledSeconds="29.74" traveltime="0.04" overlapTraveltime="1.08" density="25.03" overlapDensity="476.19" laneDensity="25.03" occupancy="9.37" waitingTime="0.00" timeLoss="19.03" speed="3.83" speedRelative="0.28" departed="0" arrived="0" entered="34" left="34" laneChangedFrom="0" laneChangedTo="0" flow="406.64"/>
        <edge id="-1183389476#2" sampledSeconds="20.90" traveltime="0.05" overlapTraveltime="0.92" density="22.51" overlapDensity="347.24" laneDensity="22.51" occupancy="6.52" waitingTime="0.00" timeLoss="12.00" speed="4.37" speedRelative="0.31" departed="0" arrived="0" entered="27" left="27" laneChangedFrom="0" laneChangedTo="0" flow="322.92"/>
        <edge id="-1183389476#3" sampledSeconds="32.86" traveltime="0.87" overlapTraveltime="1.59" density="19.06" overlapDensity="34.12" laneDensity="19.06" occupancy="5.56" waitingTime="3.00" timeLoss="19.44" speed="4.18" speedRelative="0.30" departed="0" arrived="0" entered="21" left="21" laneChangedFrom="0" laneChangedTo="0" flow="251.16"/>
        <edge id="-1183389476#4" sampledSeconds="14.80" traveltime="0.04" overlapTraveltime="0.86" density="14.51" overlapDensity="245.87" laneDensity="14.51" occupancy="4.64" waitingTime="0.00" timeLoss="8.17" speed="5.01" speedRelative="0.36" departed="0" arrived="0" entered="21" left="21" laneChangedFrom="0" laneChangedTo="0" flow="251.16"/>
        <edge id="-1188778649" sampledSeconds="0.00" departed="0" arrived="0" entered="0" left="0" laneChangedFrom="0" laneChangedTo="0"/>
        <edge id="-118915928#1" sampledSeconds="560.84" traveltime="28.82" overlapTraveltime="29.29" density="6.80" overlapDensity="6.89" laneDensity="6.80" occupancy="2.16" waitingTime="1.00" timeLoss="173.80" speed="9.34" speedRelative="0.67" departed="21" arrived="0" entered="0" left="13" laneChangedFrom="0" laneChangedTo="0" flow="229.65"/>
        <edge id="-118915930" sampledSeconds="0.00" departed="0" arrived="0" entered="0" left="0" laneChangedFrom="0" laneChangedTo="0"/>
        <edge id="-118915931#1" sampledSeconds="1780.71" traveltime="106.95" overlapTraveltime="109.62" density="95.35" overlapDensity="95.85" laneDensity="95.35" occupancy="37.18" waitingTime="1438.00" timeLoss="1698.46" speed="0.60" speedRelative="0.04" departed="0" arrived="0" entered="20" left="11" laneChangedFrom="0" laneChangedTo="0" flow="198.09"/>
        <edge id="-118915931#2" sampledSeconds="404.39" traveltime="38.31" overlapTraveltime="39.11" density="30.13" overlapDensity="30.42" laneDensity="30.13" occupancy="10.20" waitingTime="320.00" timeLoss="368.34" speed="1.22" speedRelative="0.09" departed="0" arrived="0" entered="15" left="6" laneChangedFrom="0" laneChangedTo="0" flow="125.06"/>
        <edge id="-118915931#3" sampledSeconds="89.54" traveltime="6.46" overlapTraveltime="6.77" density="4.54" overlapDensity="4.77" laneDensity="4.54" occupancy="1.66" waitingTime="0.00" timeLoss="26.00" speed="9.74" speedRelative="0.70" departed="14" arrived="0" entered="0" left="14" laneChangedFrom="0" laneChangedTo="0" flow="157.51"/>
        <edge id="-118915934" sampledSeconds="0.00" departed="0" arrived="0" entered="0" left="0" laneChangedFrom="0" laneChangedTo="0"/>
        <edge id="-118915940#0" sampledSeconds="25.39" traveltime="6.45" overlapTraveltime="6.90" density="2.40" overlapDensity="2.46" laneDensity="2.40" occupancy="0.51" waitingTime="3.00" timeLoss="14.40" speed="5.29" speedRelative="0.38" departed="0" arrived="0" entered="5" left="1" laneChangedFrom="0" laneChangedTo="0" flow="46.02"/>
        <edge id="-118915940#1" sampledSeconds="8.29" traveltime="3.92" overlapTraveltime="4.41" density="0.78" overlapDensity="0.82" laneDensity="0.78" occupancy="0.35" waitingTime="0.00" timeLoss="2.97" speed="8.74" speedRelative="0.63" departed="0" arrived="2" entered="2" left="0" laneChangedFrom="0" laneChangedTo="0" flow="23.92"/>
        <edge id="-118915964#0" sampledSeconds="408.08" traveltime="29.75" overlapTraveltime="30.10" density="14.85" overlapDensity="14.93" laneDensity="14.85" occupancy="3.26" waitingTime="275.00" timeLoss="312.70" speed="3.09" speedRelative="0.22" departed="0" arrived="0" entered="14" left="10" laneChangedFrom="0" laneChangedTo="0" flow="163.20"/>
        <edge id="-118915964#1" sampledSeconds="74.45" traveltime="5.36" overlapTraveltime="5.57" density="4.90" overlapDensity="5.10" laneDensity="4.90" occupancy="1.10" waitingTime="0.00" timeLoss="23.24" speed="9.10" speedRelative="0.66" departed="14" arrived="0" entered="0" left="14" laneChangedFrom="0" laneChangedTo="0" flow="159.50"/>
        <edge id="-118915966#0" sampledSeconds="30.57" traveltime="4.05" overlapTraveltime="4.43" density="1.74" overlapDensity="1.88" laneDensity="1.74" occupancy="0.87" waitingTime="0.00" timeLoss="2.33" speed="13.33" speedRelative="0.96" departed="0" arrived="7" entered="7" left="0" laneChangedFrom="0" laneChangedTo="0" flow="83.72"/>
        <edge id="-118915966#1" sampledSeconds="86.77" traveltime="5.97" overlapTraveltime="6.36" density="5.86" overlapDensity="6.28" laneDensity="5.86" occupancy="1.88" waitingTime="0.00" timeLoss="36.97" speed="7.73" speedRelative="0.56" departed="7" arrived="0" entered="7" left="13" laneChangedFrom="0" laneChangedTo="0" flow="162.17"/>
        <edge id="-118915966#2" sampledSeconds="43.07" traveltime="4.02" overlapTraveltime="4.71" density="3.50" overlapDensity="4.10" laneDensity="3.50" occupancy="1.74" waitingTime="0.00" timeLoss="13.05" speed="8.45" speedRelative="0.61" departed="0" arrived="0" entered="10" left="9" laneChangedFrom="0" laneChangedTo="0" flow="109.43"/>
        <edge id="-1190968366#0" sampledSeconds="0.00" departed="0" arrived="0" entered="0" left="0" laneChangedFrom="0" laneChangedTo="0"/>
        <edge id="-1190968366#1" sampledSeconds="0.00" departed="0" arrived="0" entered="0" left="0" laneChangedFrom="0" laneChangedTo="0"/>
        <edge id="-1190968366#2" sampledSeconds="0.00" departed="0" arrived="0" entered="0" left="0" laneChangedFrom="0" laneChangedTo="0"/>
        <edge id="-1190968366#3" sampledSeconds="0.00" departed="0" arrived="0" entered="0" left="0" laneChangedFrom="0" laneChangedTo="0"/>
        <edge id="-1190968366#4" sampledSeconds="0.00" departed="0" arrived="0" entered="0" left="0" laneChangedFrom="0" laneChangedTo="0"/>
        <edge id="-1190968366#5" sampledSeconds="0.00" departed="0" arrived="0" entered="0" left="0" laneChangedFrom="0" laneChangedTo="0"/>
        <edge id="-1191966697" sampledSeconds="0.00" departed="0" arrived="0" entered="0" left="0" laneChangedFrom="0" laneChangedTo="0"/>
        <edge id="-1191966698" sampledSeconds="5.53" traveltime="1.89" overlapTraveltime="2.76" density="1.03" overlapDensity="1.51" laneDensity="1.03" occupancy="0.51" waitingTime="0.00" timeLoss="2.31" speed="6.22" speedRelative="0.45" departed="0" arrived="0" entered="2" left="2" laneChangedFrom="0" laneChangedTo="0" flow="23.92"/>
        <edge id="-1191966699" sampledSeconds="0.00" departed="0" arrived="0" entered="0" left="0" laneChangedFrom="0" laneChangedTo="0"/>
        <edge id="-1191966700" sampledSeconds="7.18" traveltime="0.70" overlapTraveltime="1.03" density="5.26" overlapDensity="7.67" laneDensity="5.26" occupancy="0.81" waitingTime="0.00" timeLoss="1.42" speed="4.59" speedRelative="0.33" departed="0" arrived="0" entered="7" left="7" laneChangedFrom="0" laneChangedTo="0" flow="83.72"/>