<?xml version="1.0" encoding="UTF-8"?>

<!-- generated on 2026-01-31T21:03:27.916477+07:00 by Eclipse SUMO sumo v1_25_0+0904-59bbc76848e
<sumoConfiguration xmlns:xsi="http://www.w3.org/2001/XMLSchema-instance" xsi:noNamespaceSchemaLocation="http://sumo.dlr.de/xsd/sumoConfiguration.xsd">

    <input>
        <net-file value="maps/CTU_map/osm.net.xml.gz"/>
        <route-files value="maps/CTU_map/osm.bicycle.trips.xml,maps/CTU_map/osm.motorcycle.trips.xml,maps/CTU_map/osm.passenger.trips.xml,maps/CTU_map/osm.pedestrian.rou.xml"/>
        <additional-files value="maps/CTU_map/osm.poly.xml.gz,maps/CTU_map/output.add.xml"/>
    </input>

    <output>
        <tripinfo-output value="maps/CTU_map/tripinfos.xml"/>
        <statistic-output value="maps/CTU_map/stats.xml"/>
    </output>

    <processing>
        <ignore-route-errors value="true"/>
        <scale value="5.0"/>
        <tls.actuated.jam-threshold value="30"/>
    </processing>

    <routing>
        <device.rerouting.adaptation-steps value="18"/>
        <device.rerouting.adaptation-interval value="10"/>
    </routing>

    <report>
        <verbose value="true"/>
        <no-warnings value="true"/>
        <no-step-log value="true"/>
    </report>

    <emissions>
        <device.emissions.probability value="1.0"/>
    </emissions>

    <traci_server>
        <remote-port value="40817"/>
    </traci_server>

    <gui_only>
        <gui-settings-file value="maps/CTU_map/osm.view.xml"/>
        <quit-on-end value="true"/>
        <start value="true"/>
        <delay value="20"/>
    </gui_only>

</sumoConfiguration>
-->

<tripinfos xmlns:xsi="http://www.w3.org/2001/XMLSchema-instance" xsi:noNamespaceSchemaLocation="http://sumo.dlr.de/xsd/tripinfo_file.xsd">
    <personinfo id="ped1.2" depart="9.00" type="ped_pedestrian" speedFactor="1.18" duration="34.00" waitingTime="1.00" timeLoss="4.46" traveltime="34.00">
        <walk depart="9.00" departPos="0.00" arrival="43.00" arrivalPos="24.14" duration="34.00" routeLength="48.40" timeLoss="4.46" maxSpeed="1.64" waitingTime="1.00"/>
    </personinfo>
    <personinfo id="ped1.3" depart="9.00" type="ped_pedestrian" speedFactor="1.10" duration="37.00" waitingTime="1.00" timeLoss="5.39" traveltime="37.00">
        <walk depart="9.00" departPos="0.00" arrival="46.00" arrivalPos="24.14" duration="37.00" routeLength="48.40" timeLoss="5.39" maxSpeed="1.53" waitingTime="1.00"/>
    </personinfo>
    <tripinfo id="motorcycle15" depart="18.00" departLane="-136482748_0" departPos="2.30" departSpeed="13.40" departDelay="0.27" arrival="46.00" arrivalLane="166258974#2_0" arrivalPos="55.79" arrivalSpeed="11.37" duration="28.00" routeLength="298.41" waitingTime="0.00" waitingCount="0" stopTime="0.00" timeLoss="4.10" rerouteNo="1" devices="tripinfo_motorcycle15 routing_motorcycle15 emissions_motorcycle15" vType="motorcycle_motorcycle" speedFactor="0.96" vaporized="">
        <emissions CO_abs="1150.76" CO2_abs="37099.58" HC_abs="430.54" PMx_abs="8.46" NOx_abs="55.41" fuel_abs="12029.66" electricity_abs="0.00"/>
    </tripinfo>
    <personinfo id="ped1" depart="9.00" type="ped_pedestrian" speedFactor="1.02" duration="38.00" waitingTime="0.00" timeLoss="3.83" traveltime="38.00">
        <walk depart="9.00" departPos="0.00" arrival="47.00" arrivalPos="24.14" duration="38.00" routeLength="48.40" timeLoss="3.83" maxSpeed="1.42" waitingTime="0.00"/>
    </personinfo>
    <tripinfo id="motorcycle15.1" depart="19.00" departLane="-136482748_0" departPos="2.30" departSpeed="7.62" departDelay="1.27" arrival="48.00" arrivalLane="166258974#2_0" arrivalPos="55.79" arrivalSpeed="11.43" duration="29.00" routeLength="298.41" waitingTime="0.00" waitingCount="0" stopTime="0.00" timeLoss="5.81" rerouteNo="1" devices="tripinfo_motorcycle15.1 routing_motorcycle15.1 emissions_motorcycle15.1" vType="motorcycle_motorcycle" speedFactor="0.98" vaporized="">
        <emissions CO_abs="1418.08" CO2_abs="47166.49" HC_abs="527.79" PMx_abs="10.23" NOx_abs="71.46" fuel_abs="15293.80" electricity_abs="0.00"/>
    </tripinfo>
    <personinfo id="ped1.1" depart="9.00" type="ped_pedestrian" speedFactor="0.97" duration="40.00" waitingTime="0.00" timeLoss="4.19" traveltime="40.00">
        <walk depart="9.00" departPos="0.00" arrival="49.00" arrivalPos="24.14" duration="40.00" routeLength="48.40" timeLoss="4.19" maxSpeed="1.35" waitingTime="0.00"/>
    </personinfo>
    <tripinfo id="motorcycle15.2" depart="20.00" departLane="-136482748_0" departPos="2.30" departSpeed="0.35" departDelay="2.27" arrival="51.00" arrivalLane="166258974#2_0" arrivalPos="55.79" arrivalSpeed="10.95" duration="31.00" routeLength="298.41" waitingTime="0.00" waitingCount="0" stopTime="0.00" timeLoss="6.51" rerouteNo="1" devices="tripinfo_motorcycle15.2 routing_motorcycle15.2 emissions_motorcycle15.2" vType="motorcycle_motorcycle" speedFactor="0.92" vaporized="">
        <emissions CO_abs="1405.75" CO2_abs="57881.47" HC_abs="642.96" PMx_abs="12.83" NOx_abs="78.56" fuel_abs="18768.20" electricity_abs="0.00"/>
    </tripinfo>
    <tripinfo id="motorcycle24" depart="29.00" departLane="-566514591#4_0" departPos="2.30" departSpeed="12.55" departDelay="0.63" arrival="51.00" arrivalLane="566514591#4_0" arrivalPos="84.05" arrivalSpeed="10.07" duration="22.00" routeLength="198.65" waitingTime="0.00" waitingCount="0" stopTime="0.00" timeLoss="4.07" rerouteNo="1" devices="tripinfo_motorcycle24 routing_motorcycle24 emissions_motorcycle24" vType="motorcycle_motorcycle" speedFactor="0.90" vaporized="">
        <emissions CO_abs="808.61" CO2_abs="32543.72" HC_abs="370.32" PMx_abs="7.33" NOx_abs="44.97" fuel_abs="10552.39" electricity_abs="0.00"/>
    </tripinfo>
    <tripinfo id="motorcycle24.1" depart="30.00" departLane="-566514591#4_0" departPos="2.30" departSpeed="6.47" departDelay="1.63" arrival="52.00" arrivalLane="566514591#4_0" arrivalPos="84.05" arrivalSpeed="15.07" duration="22.00" routeLength="198.65" waitingTime="0.00" waitingCount="0" stopTime="0.00" timeLoss="8.12" rerouteNo="1" devices="tripinfo_motorcycle24.1 routing_motorcycle24.1 emissions_motorcycle24.1" vType="motorcycle_motorcycle" speedFactor="1.09" vaporized="">
        <emissions CO_abs="1557.97" CO2_abs="44756.54" HC_abs="460.09" PMx_abs="8.14" NOx_abs="77.60" fuel_abs="14512.10" electricity_abs="0.00"/>
    </tripinfo>
    <tripinfo id="motorcycle15.3" depart="22.00" departLane="-136482748_0" departPos="2.30" departSpeed="0.95" departDelay="4.27" arrival="53.00" arrivalLane="166258974#2_0" arrivalPos="55.79" arrivalSpeed="11.09" duration="31.00" routeLength="298.41" waitingTime="0.00" waitingCount="0" stopTime="0.00" timeLoss="7.57" rerouteNo="1" devices="tripinfo_motorcycle15.3 routing_motorcycle15.3 emissions_motorcycle15.3" vType="motorcycle_motorcycle" speedFactor="0.96" vaporized="">
        <emissions CO_abs="1581.87" CO2_abs="57023.52" HC_abs="622.06" PMx_abs="12.00" NOx_abs="84.83" fuel_abs="18489.90" electricity_abs="0.00"/>
    </tripinfo>
    <tripinfo id="motorcycle15.4" depart="24.00" departLane="-136482748_0" departPos="2.30" departSpeed="1.90" departDelay="6.27" arrival="54.00" arrivalLane="166258974#2_0" arrivalPos="55.79" arrivalSpeed="14.76" duration="30.00" routeLength="298.41" waitingTime="0.00" waitingCount="0" stopTime="0.00" timeLoss="12.25" rerouteNo="1" devices="tripinfo_motorcycle15.4 routing_motorcycle15.4 emissions_motorcycle15.4" vType="motorcycle_motorcycle" speedFactor="1.26" vaporized="">
        <emissions CO_abs="1950.54" CO2_abs="61072.97" HC_abs="633.51" PMx_abs="11.66" NOx_abs="100.67" fuel_abs="19802.74" electricity_abs="0.00"/>
    </tripinfo>
    <personinfo id="ped1.4" depart="9.00" type="ped_pedestrian" speedFactor="0.90" duration="46.00" waitingTime="1.00" timeLoss="7.31" traveltime="46.00">
        <walk depart="9.00" departPos="0.00" arrival="55.00" arrivalPos="24.14" duration="46.00" routeLength="48.40" timeLoss="7.31" maxSpeed="1.25" waitingTime="1.00"/>
    </personinfo>
    <tripinfo id="motorcycle24.2" depart="31.00" departLane="-566514591#4_0" departPos="2.30" departSpeed="0.11" departDelay="2.63" arrival="56.00" arrivalLane="566514591#4_0" arrivalPos="84.05" arrivalSpeed="14.25" duration="25.00" routeLength="198.65" waitingTime="1.00" waitingCount="1" stopTime="0.00" timeLoss="10.31" rerouteNo="1" devices="tripinfo_motorcycle24.2 routing_motorcycle24.2 emissions_motorcycle24.2" vType="motorcycle_motorcycle" speedFactor="1.11" vaporized="">
        <emissions CO_abs="1538.15" CO2_abs="60200.98" HC_abs="655.56" PMx_abs="13.00" NOx_abs="81.86" fuel_abs="19520.26" electricity_abs="0.00"/>
    </tripinfo>
    <tripinfo id="motorcycle31" depart="37.00" departLane="-1425299785_0" departPos="2.30" departSpeed="13.06" departDelay="0.36" arrival="56.00" arrivalLane="832010968#1_0" arrivalPos="44.16" arrivalSpeed="12.80" duration="19.00" routeLength="104.75" waitingTime="4.00" waitingCount="1" stopTime="0.00" timeLoss="10.29" rerouteNo="0" devices="tripinfo_motorcycle31 routing_motorcycle31 emissions_motorcycle31" vType="motorcycle_motorcycle" speedFactor="0.94" vaporized="">
        <emissions CO_abs="549.07" CO2_abs="31679.49" HC_abs="393.58" PMx_abs="7.87" NOx_abs="35.55" fuel_abs="10272.26" electricity_abs="0.00"/>
    </tripinfo>
    <tripinfo id="motorcycle31.1" depart="38.00" departLane="-1425299785_0" departPos="2.30" departSpeed="10.44" departDelay="1.36" arrival="58.00" arrivalLane="832010968#1_0" arrivalPos="44.16" arrivalSpeed="14.43" duration="20.00" routeLength="104.75" waitingTime="4.00" waitingCount="1" stopTime="0.00" timeLoss="12.08" rerouteNo="0" devices="tripinfo_motorcycle31.1 routing_motorcycle31.1 emissions_motorcycle31.1" vType="motorcycle_motorcycle" speedFactor="1.11" vaporized="">
        <emissions CO_abs="718.24" CO2_abs="35556.48" HC_abs="411.88" PMx_abs="8.29" NOx_abs="42.50" fuel_abs="11529.33" electricity_abs="0.00"/>
    </tripinfo>
    <tripinfo id="motorcycle24.3" depart="34.00" departLane="-566514591#4_0" departPos="2.30" departSpeed="5.02" departDelay="5.63" arrival="59.00" arrivalLane="566514591#4_0" arrivalPos="84.05" arrivalSpeed="12.03" duration="25.00" routeLength="198.65" waitingTime="0.00" waitingCount="0" stopTime="0.00" timeLoss="11.17" rerouteNo="1" devices="tripinfo_motorcycle24.3 routing_motorcycle24.3 emissions_motorcycle24.3" vType="motorcycle_motorcycle" speedFactor="1.07" vaporized="">
        <emissions CO_abs="1168.05" CO2_abs="49890.12" HC_abs="519.29" PMx_abs="10.06" NOx_abs="68.11" fuel_abs="16176.81" electricity_abs="0.00"/>
    </tripinfo>
    <tripinfo id="motorcycle24.4" depart="36.00" departLane="-566514591#4_0" departPos="2.30" departSpeed="6.39" departDelay="7.63" arrival="61.00" arrivalLane="566514591#4_0" arrivalPos="84.05" arrivalSpeed="16.16" duration="25.00" routeLength="198.65" waitingTime="0.00" waitingCount="0" stopTime="0.00" timeLoss="12.32" rerouteNo="1" devices="tripinfo_motorcycle24.4 routing_motorcycle24.4 emissions_motorcycle24.4" vType="motorcycle_motorcycle" speedFactor="1.21" vaporized="">
        <emissions CO_abs="1465.94" CO2_abs="51503.23" HC_abs="565.58" PMx_abs="10.65" NOx_abs="73.71" fuel_abs="16699.92" electricity_abs="0.00"/>
    </tripinfo>
    <tripinfo id="motorcycle31.2" depart="39.00" departLane="-1425299785_0" departPos="2.30" departSpeed="4.03" departDelay="2.36" arrival="61.00" arrivalLane="832010968#1_0" arrivalPos="44.16" arrivalSpeed="11.09" duration="22.00" routeLength="104.75" waitingTime="3.00" waitingCount="1" stopTime="0.00" timeLoss="12.12" rerouteNo="0" devices="tripinfo_motorcycle31.2 routing_motorcycle31.2 emissions_motorcycle31.2" vType="motorcycle_motorcycle" speedFactor="0.82" vaporized="">
        <emissions CO_abs="516.99" CO2_abs="36838.07" HC_abs="412.89" PMx_abs="8.49" NOx_abs="39.01" fuel_abs="11944.88" electricity_abs="0.00"/>
    </tripinfo>
    <tripinfo id="motorcycle1" depart="2.00" departLane="1215566873#0_0" departPos="2.30" departSpeed="12.87" departDelay="0.82" arrival="63.00" arrivalLane="877423628#2_0" arrivalPos="12.95" arrivalSpeed="11.87" duration="61.00" routeLength="634.10" waitingTime="0.00" waitingCount="0" stopTime="0.00" timeLoss="10.00" rerouteNo="1" devices="tripinfo_motorcycle1 routing_motorcycle1 emissions_motorcycle1" vType="motorcycle_motorcycle" speedFactor="0.93" vaporized="">
        <emissions CO_abs="2314.23" CO2_abs="87963.00" HC_abs="1030.19" PMx_abs="20.56" NOx_abs="120.56" fuel_abs="28522.36" electricity_abs="0.00"/>
    </tripinfo>
    <tripinfo id="motorcycle31.3" depart="41.00" departLane="-1425299785_0" departPos="2.30" departSpeed="3.52" departDelay="4.36" arrival="63.00" arrivalLane="832010968#1_0" arrivalPos="44.16" arrivalSpeed="13.33" duration="22.00" routeLength="104.75" waitingTime="3.00" waitingCount="1" stopTime="0.00" timeLoss="14.25" rerouteNo="0" devices="tripinfo_motorcycle31.3 routing_motorcycle31.3 emissions_motorcycle31.3" vType="motorcycle_motorcycle" speedFactor="1.13" vaporized="">
        <emissions CO_abs="527.59" CO2_abs="36183.87" HC_abs="404.48" PMx_abs="8.44" NOx_abs="37.90" fuel_abs="11732.77" electricity_abs="0.00"/>
    </tripinfo>
    <tripinfo id="motorcycle31.4" depart="43.00" departLane="-1425299785_0" departPos="2.30" departSpeed="5.67" departDelay="6.36" arrival="65.00" arrivalLane="832010968#1_0" arrivalPos="44.16" arrivalSpeed="11.29" duration="22.00" routeLength="104.75" waitingTime="2.00" waitingCount="1" stopTime="0.00" timeLoss="12.42" rerouteNo="0" devices="tripinfo_motorcycle31.4 routing_motorcycle31.4 emissions_motorcycle31.4" vType="motorcycle_motorcycle" speedFactor="0.90" vaporized="">
        <emissions CO_abs="505.42" CO2_abs="38466.80" HC_abs="450.92" PMx_abs="9.37" NOx_abs="38.38" fuel_abs="12473.07" electricity_abs="0.00"/>
    </tripinfo>
    <tripinfo id="motorcycle1.1" depart="3.00" departLane="1215566873#0_0" departPos="2.30" departSpeed="10.41" departDelay="1.82" arrival="69.00" arrivalLane="877423628#2_0" arrivalPos="12.95" arrivalSpeed="12.19" duration="66.00" routeLength="634.10" waitingTime="0.00" waitingCount="0" stopTime="0.00" timeLoss="11.18" rerouteNo="1" devices="tripinfo_motorcycle1.1 routing_motorcycle1.1 emissions_motorcycle1.1" vType="motorcycle_motorcycle" speedFactor="0.88" vaporized="">
        <emissions CO_abs="2036.78" CO2_abs="87075.18" HC_abs="1035.96" PMx_abs="20.89" NOx_abs="113.47" fuel_abs="28234.56" electricity_abs="0.00"/>
    </tripinfo>
    <tripinfo id="motorcycle1.2" depart="4.00" departLane="1215566873#0_0" departPos="2.30" departSpeed="5.28" departDelay="2.82" arrival="71.00" arrivalLane="877423628#2_0" arrivalPos="12.95" arrivalSpeed="12.59" duration="67.00" routeLength="634.10" waitingTime="0.00" waitingCount="0" stopTime="0.00" timeLoss="16.28" rerouteNo="1" devices="tripinfo_motorcycle1.2 routing_motorcycle1.2 emissions_motorcycle1.2" vType="motorcycle_motorcycle" speedFactor="0.94" vaporized="">
        <emissions CO_abs="3005.53" CO2_abs="112766.03" HC_abs="1269.64" PMx_abs="24.59" NOx_abs="164.27" fuel_abs="36564.55" electricity_abs="0.00"/>
    </tripinfo>
    <tripinfo id="motorcycle1.3" depart="6.00" departLane="1215566873#0_0" departPos="2.30" departSpeed="7.59" departDelay="4.82" arrival="73.00" arrivalLane="877423628#2_0" arrivalPos="12.95" arrivalSpeed="11.61" duration="67.00" routeLength="634.10" waitingTime="0.00" waitingCount="0" stopTime="0.00" timeLoss="15.90" rerouteNo="1" devices="tripinfo_motorcycle1.3 routing_motorcycle1.3 emissions_motorcycle1.3" vType="motorcycle_motorcycle" speedFactor="0.94" vaporized="">
        <emissions CO_abs="2122.44" CO2_abs="97448.83" HC_abs="1185.55" PMx_abs="24.12" NOx_abs="120.53" fuel_abs="31598.37" electricity_abs="0.00"/>
    </tripinfo>
    <tripinfo id="motorcycle1.4" depart="7.00" departLane="1215566873#0_0" departPos="2.30" departSpeed="1.33" departDelay="5.82" arrival="75.00" arrivalLane="877423628#2_0" arrivalPos="12.95" arrivalSpeed="13.22" duration="68.00" routeLength="634.10" waitingTime="0.00" waitingCount="0" stopTime="0.00" timeLoss="26.15" rerouteNo="1" devices="tripinfo_motorcycle1.4 routing_motorcycle1.4 emissions_motorcycle1.4" vType="motorcycle_motorcycle" speedFactor="1.16" vaporized="">
        <emissions CO_abs="3296.15" CO2_abs="122762.10" HC_abs="1370.71" PMx_abs="26.69" NOx_abs="176.91" fuel_abs="39805.78" electricity_abs="0.00"/>
    </tripinfo>
    <tripinfo id="motorcycle6" depart="8.00" departLane="-935745880#3_0" departPos="2.30" departSpeed="13.83" departDelay="0.91" arrival="82.00" arrivalLane="-935745886_0" arrivalPos="197.65" arrivalSpeed="11.42" duration="74.00" routeLength="878.74" waitingTime="0.00" waitingCount="0" stopTime="0.00" timeLoss="9.28" rerouteNo="1" devices="tripinfo_motorcycle6 routing_motorcycle6 emissions_motorcycle6" vType="motorcycle_motorcycle" speedFactor="1.00" vaporized="">
        <emissions CO_abs="3578.80" CO2_abs="101254.28" HC_abs="1185.89" PMx_abs="22.79" NOx_abs="161.51" fuel_abs="32831.96" electricity_abs="0.00"/>
    </tripinfo>
    <tripinfo id="motorcycle6.1" depart="9.00" departLane="-935745880#3_0" departPos="2.30" departSpeed="10.93" departDelay="1.91" arrival="84.00" arrivalLane="-935745886_0" arrivalPos="197.65" arrivalSpeed="14.39" duration="75.00" routeLength="878.74" waitingTime="0.00" waitingCount="0" stopTime="0.00" timeLoss="18.28" rerouteNo="1" devices="tripinfo_motorcycle6.1 routing_motorcycle6.1 emissions_motorcycle6.1" vType="motorcycle_motorcycle" speedFactor="1.15" vaporized="">
        <emissions CO_abs="4776.56" CO2_abs="126672.92" HC_abs="1459.59" PMx_abs="27.08" NOx_abs="214.54" fuel_abs="41073.75" electricity_abs="0.00"/>
    </tripinfo>
    <tripinfo id="motorcycle0" depart="0.00" departLane="-1456657573_0" departPos="2.30" departSpeed="15.15" departDelay="0.00" arrival="85.00" arrivalLane="1425299786_0" arrivalPos="52.89" arrivalSpeed="13.38" duration="85.00" routeLength="867.98" waitingTime="5.00" waitingCount="1" stopTime="0.00" timeLoss="23.65" rerouteNo="1" devices="tripinfo_motorcycle0 routing_motorcycle0 emissions_motorcycle0" vType="motorcycle_motorcycle" speedFactor="1.09" vaporized="">
        <emissions CO_abs="5171.12" CO2_abs="155371.75" HC_abs="1746.59" PMx_abs="32.89" NOx_abs="245.27" fuel_abs="50379.34" electricity_abs="0.00"/>
    </tripinfo>
    <tripinfo id="bike4" depart="25.00" departLane="954534278_0" departPos="1.70" departSpeed="4.75" departDelay="0.18" arrival="85.00" arrivalLane="-954524072_0" arrivalPos="41.87" arrivalSpeed="4.17" duration="60.00" routeLength="260.86" waitingTime="0.00" waitingCount="0" stopTime="0.00" timeLoss="4.27" rerouteNo="1" devices="tripinfo_bike4 routing_bike4 emissions_bike4" vType="bike_bicycle" speedFactor="0.85" vaporized="">
        <emissions CO_abs="0.00" CO2_abs="0.00" HC_abs="0.00" PMx_abs="0.00" NOx_abs="0.00" fuel_abs="0.00" electricity_abs="0.00"/>
    </tripinfo>
    <tripinfo id="bike4.1" depart="26.00" departLane="954534278_0" departPos="1.70" departSpeed="3.23" departDelay="1.18" arrival="86.00" arrivalLane="-954524072_0" arrivalPos="41.87" arrivalSpeed="5.57" duration="60.00" routeLength="260.86" waitingTime="0.00" waitingCount="0" stopTime="0.00" timeLoss="19.43" rerouteNo="1" devices="tripinfo_bike4.1 routing_bike4.1 emissions_bike4.1" vType="bike_bicycle" speedFactor="1.17" vaporized="">
        <emissions CO_abs="0.00" CO2_abs="0.00" HC_abs="0.00" PMx_abs="0.00" NOx_abs="0.00" fuel_abs="0.00" electricity_abs="0.00"/>
    </tripinfo>
    <tripinfo id="bike4.2" depart="27.00" departLane="954534278_0" departPos="1.70" departSpeed="0.88" departDelay="2.18" arrival="88.00" arrivalLane="-954524072_0" arrivalPos="41.87" arrivalSpeed="5.50" duration="61.00" routeLength="260.86" waitingTime="0.00" waitingCount="0" stopTime="0.00" timeLoss="13.93" rerouteNo="1" devices="tripinfo_bike4.2 routing_bike4.2 emissions_bike4.2" vType="bike_bicycle" speedFactor="1.02" vaporized="">
        <emissions CO_abs="0.00" CO2_abs="0.00" HC_abs="0.00" PMx_abs="0.00" NOx_abs="0.00" fuel_abs="0.00" electricity_abs="0.00"/>
    </tripinfo>
    <tripinfo id="bike4.3" depart="29.00" departLane="954534278_0" departPos="1.70" departSpeed="0.13" departDelay="4.18" arrival="89.00" arrivalLane="-954524072_0" arrivalPos="41.87" arrivalSpeed="5.75" duration="60.00" routeLength="260.86" waitingTime="0.00" waitingCount="0" stopTime="0.00" timeLoss="16.68" rerouteNo="1" devices="tripinfo_bike4.3 routing_bike4.3 emissions_bike4.3" vType="bike_bicycle" speedFactor="1.10" vaporized="">
        <emissions CO_abs="0.00" CO2_abs="0.00" HC_abs="0.00" PMx_abs="0.00" NOx_abs="0.00" fuel_abs="0.00" electricity_abs="0.00"/>
    </tripinfo>
    <tripinfo id="bike4.4" depart="32.00" departLane="954534278_0" departPos="1.70" departSpeed="1.26" departDelay="7.18" arrival="91.00" arrivalLane="-954524072_0" arrivalPos="41.87" arrivalSpeed="5.06" duration="59.00" routeLength="260.86" waitingTime="0.00" waitingCount="0" stopTime="0.00" timeLoss="11.36" rerouteNo="1" devices="tripinfo_bike4.4 routing_bike4.4 emissions_bike4.4" vType="bike_bicycle" speedFactor="1.00" vaporized="">
        <emissions CO_abs="0.00" CO2_abs="0.00" HC_abs="0.00" PMx_abs="0.00" NOx_abs="0.00" fuel_abs="0.00" electricity_abs="0.00"/>
    </tripinfo>
    <tripinfo id="motorcycle33" depart="39.00" departLane="-167955351#9_0" departPos="2.30" departSpeed="0.00" departDelay="0.00" arrival="93.00" arrivalLane="-170055411#1_0" arrivalPos="64.89" arrivalSpeed="13.72" duration="54.00" routeLength="642.68" waitingTime="0.00" waitingCount="0" stopTime="0.00" timeLoss="7.78" rerouteNo="1" devices="tripinfo_motorcycle33 routing_motorcycle33 emissions_motorcycle33" vType="motorcycle_motorcycle" speedFactor="1.03" vaporized="">
        <emissions CO_abs="3364.33" CO2_abs="97369.57" HC_abs="1106.00" PMx_abs="21.35" NOx_abs="153.18" fuel_abs="31572.26" electricity_abs="0.00"/>
    </tripinfo>
    <tripinfo id="motorcycle20" depart="26.00" departLane="-136482748_0" departPos="2.30" departSpeed="3.98" departDelay="2.36" arrival="95.00" arrivalLane="166334928_0" arrivalPos="79.18" arrivalSpeed="11.26" duration="69.00" routeLength="646.58" waitingTime="0.00" waitingCount="0" stopTime="0.00" timeLoss="18.32" rerouteNo="1" devices="tripinfo_motorcycle20 routing_motorcycle20 emissions_motorcycle20" vType="motorcycle_motorcycle" speedFactor="0.97" vaporized="">
        <emissions CO_abs="2851.90" CO2_abs="112136.59" HC_abs="1212.08" PMx_abs="23.85" NOx_abs="158.01" fuel_abs="36360.39" electricity_abs="0.00"/>
    </tripinfo>
    <tripinfo id="motorcycle20.1" depart="28.00" departLane="-136482748_0" departPos="2.30" departSpeed="4.15" departDelay="4.36" arrival="98.00" arrivalLane="166334928_0" arrivalPos="79.18" arrivalSpeed="10.83" duration="70.00" routeLength="646.58" waitingTime="0.00" waitingCount="0" stopTime="0.00" timeLoss="18.69" rerouteNo="1" devices="tripinfo_motorcycle20.1 routing_motorcycle20.1 emissions_motorcycle20.1" vType="motorcycle_motorcycle" speedFactor="0.97" vaporized="">
        <emissions CO_abs="3022.81" CO2_abs="125739.81" HC_abs="1391.32" PMx_abs="27.79" NOx_abs="169.44" fuel_abs="40771.41" electricity_abs="0.00"/>
    </tripinfo>
    <tripinfo id="motorcycle33.1" depart="40.00" departLane="-167955351#9_0" departPos="2.30" departSpeed="0.00" departDelay="1.00" arrival="99.00" arrivalLane="-170055411#1_0" arrivalPos="64.89" arrivalSpeed="12.53" duration="59.00" routeLength="642.68" waitingTime="1.00" waitingCount="1" stopTime="0.00" timeLoss="9.40" rerouteNo="1" devices="tripinfo_motorcycle33.1 routing_motorcycle33.1 emissions_motorcycle33.1" vType="motorcycle_motorcycle" speedFactor="0.96" vaporized="">
        <emissions CO_abs="2610.21" CO2_abs="91427.23" HC_abs="1063.96" PMx_abs="21.22" NOx_abs="129.22" fuel_abs="29645.64" electricity_abs="0.00"/>
    </tripinfo>
    <tripinfo id="motorcycle20.2" depart="30.00" departLane="-136482748_0" departPos="2.30" departSpeed="5.01" departDelay="6.36" arrival="100.00" arrivalLane="166334928_0" arrivalPos="79.18" arrivalSpeed="14.21" duration="70.00" routeLength="646.58" waitingTime="0.00" waitingCount="0" stopTime="0.00" timeLoss="24.40" rerouteNo="1" devices="tripinfo_motorcycle20.2 routing_motorcycle20.2 emissions_motorcycle20.2" vType="motorcycle_motorcycle" speedFactor="1.09" vaporized="">
        <emissions CO_abs="3354.35" CO2_abs="115324.20" HC_abs="1250.85" PMx_abs="24.06" NOx_abs="172.59" fuel_abs="37393.87" electricity_abs="0.00"/>
    </tripinfo>
    <tripinfo id="motorcycle6.2" depart="10.00" departLane="-935745880#3_0" departPos="2.30" departSpeed="3.97" departDelay="2.91" arrival="102.00" arrivalLane="-935745886_0" arrivalPos="197.65" arrivalSpeed="10.51" duration="92.00" routeLength="878.74" waitingTime="0.00" waitingCount="0" stopTime="0.00" timeLoss="14.81" rerouteNo="1" devices="tripinfo_motorcycle6.2 routing_motorcycle6.2 emissions_motorcycle6.2" vType="motorcycle_motorcycle" speedFactor="0.84" vaporized="">
        <emissions CO_abs="2799.66" CO2_abs="121993.21" HC_abs="1445.45" PMx_abs="28.88" NOx_abs="162.16" fuel_abs="39556.84" electricity_abs="0.00"/>
    </tripinfo>
    <tripinfo id="motorcycle20.3" depart="32.00" departLane="-136482748_0" departPos="2.30" departSpeed="7.10" departDelay="8.36" arrival="102.00" arrivalLane="166334928_0" arrivalPos="79.18" arrivalSpeed="13.72" duration="70.00" routeLength="646.58" waitingTime="0.00" waitingCount="0" stopTime="0.00" timeLoss="26.17" rerouteNo="1" devices="tripinfo_motorcycle20.3 routing_motorcycle20.3 emissions_motorcycle20.3" vType="motorcycle_motorcycle" speedFactor="1.14" vaporized="">
        <emissions CO_abs="3580.79" CO2_abs="122468.41" HC_abs="1341.87" PMx_abs="25.84" NOx_abs="182.01" fuel_abs="39710.43" electricity_abs="0.00"/>
    </tripinfo>
    <tripinfo id="motorcycle33.2" depart="42.00" departLane="-167955351#9_0" departPos="2.30" departSpeed="0.00" departDelay="3.00" arrival="103.00" arrivalLane="-170055411#1_0" arrivalPos="64.89" arrivalSpeed="11.55" duration="61.00" routeLength="642.68" waitingTime="0.00" waitingCount="0" stopTime="0.00" timeLoss="11.21" rerouteNo="1" devices="tripinfo_motorcycle33.2 routing_motorcycle33.2 emissions_motorcycle33.2" vType="motorcycle_motorcycle" speedFactor="0.95" vaporized="">
        <emissions CO_abs="2763.52" CO2_abs="101225.70" HC_abs="1158.29" PMx_abs="22.98" NOx_abs="142.10" fuel_abs="32822.75" electricity_abs="0.00"/>
    </tripinfo>
    <tripinfo id="bike6" depart="39.00" departLane="-136482799#0_0" departPos="1.70" departSpeed="0.00" departDelay="1.77" arrival="104.00" arrivalLane="35923691#3_0" arrivalPos="119.43" arrivalSpeed="5.74" duration="65.00" routeLength="353.89" waitingTime="0.00" waitingCount="0" stopTime="0.00" timeLoss="5.99" rerouteNo="1" devices="tripinfo_bike6 routing_bike6 emissions_bike6" vType="bike_bicycle" speedFactor="1.08" vaporized="">
        <emissions CO_abs="0.00" CO2_abs="0.00" HC_abs="0.00" PMx_abs="0.00" NOx_abs="0.00" fuel_abs="0.00" electricity_abs="0.00"/>
    </tripinfo>
    <tripinfo id="motorcycle6.3" depart="12.00" departLane="-935745880#3_0" departPos="2.30" departSpeed="7.85" departDelay="4.91" arrival="104.00" arrivalLane="-935745886_0" arrivalPos="197.65" arrivalSpeed="14.16" duration="92.00" routeLength="878.74" waitingTime="0.00" waitingCount="0" stopTime="0.00" timeLoss="30.80" rerouteNo="1" devices="tripinfo_motorcycle6.3 routing_motorcycle6.3 emissions_motorcycle6.3" vType="motorcycle_motorcycle" speedFactor="1.06" vaporized="">
        <emissions CO_abs="3756.76" CO2_abs="142463.69" HC_abs="1616.92" PMx_abs="31.28" NOx_abs="207.84" fuel_abs="46194.08" electricity_abs="0.00"/>
    </tripinfo>
    <tripinfo id="motorcycle33.3" depart="45.00" departLane="-167955351#9_0" departPos="2.30" departSpeed="0.00" departDelay="6.00" arrival="104.00" arrivalLane="-170055411#1_0" arrivalPos="64.89" arrivalSpeed="14.80" duration="59.00" routeLength="642.68" waitingTime="0.00" waitingCount="0" stopTime="0.00" timeLoss="15.56" rerouteNo="1" devices="tripinfo_motorcycle33.3 routing_motorcycle33.3 emissions_motorcycle33.3" vType="motorcycle_motorcycle" speedFactor="1.08" vaporized="">
        <emissions CO_abs="3561.94" CO2_abs="109910.84" HC_abs="1203.87" PMx_abs="22.70" NOx_abs="174.80" fuel_abs="35638.54" electricity_abs="0.00"/>
    </tripinfo>
    <tripinfo id="motorcycle6.4" depart="13.00" departLane="-935745880#3_0" departPos="2.30" departSpeed="2.85" departDelay="5.91" arrival="105.00" arrivalLane="-935745886_0" arrivalPos="197.65" arrivalSpeed="11.15" duration="92.00" routeLength="878.74" waitingTime="0.00" waitingCount="0" stopTime="0.00" timeLoss="28.88" rerouteNo="1" devices="tripinfo_motorcycle6.4 routing_motorcycle6.4 emissions_motorcycle6.4" vType="motorcycle_motorcycle" speedFactor="1.02" vaporized="">
        <emissions CO_abs="3919.82" CO2_abs="156360.35" HC_abs="1769.79" PMx_abs="34.56" NOx_abs="221.67" fuel_abs="50700.15" electricity_abs="0.00"/>
    </tripinfo>
    <tripinfo id="motorcycle39" depart="47.00" departLane="1188778649_0" departPos="2.30" departSpeed="8.80" departDelay="0.90" arrival="105.00" arrivalLane="1049200866_0" arrivalPos="30.61" arrivalSpeed="12.47" duration="58.00" routeLength="514.20" waitingTime="6.00" waitingCount="1" stopTime="0.00" timeLoss="16.39" rerouteNo="1" devices="tripinfo_motorcycle39 routing_motorcycle39 emissions_motorcycle39" vType="motorcycle_motorcycle" speedFactor="1.06" vaporized="">
        <emissions CO_abs="2566.27" CO2_abs="97261.42" HC_abs="1142.40" PMx_abs="22.48" NOx_abs="133.34" fuel_abs="31537.36" electricity_abs="0.00"/>
    </tripinfo>
    <tripinfo id="bike6.1" depart="41.00" departLane="-136482799#0_0" departPos="1.70" departSpeed="0.00" departDelay="3.77" arrival="106.00" arrivalLane="35923691#3_0" arrivalPos="119.43" arrivalSpeed="5.94" duration="65.00" routeLength="353.89" waitingTime="0.00" waitingCount="0" stopTime="0.00" timeLoss="7.44" rerouteNo="1" devices="tripinfo_bike6.1 routing_bike6.1 emissions_bike6.1" vType="bike_bicycle" speedFactor="1.12" vaporized="">