<?xml version="1.0" encoding="UTF-8"?>

<!-- generated on 2026-02-07T00:47:18.834184+07:00 by Eclipse SUMO sumo v1_25_0+0904-59bbc76848e
<sumoConfiguration xmlns:xsi="http://www.w3.org/2001/XMLSchema-instance" xsi:noNamespaceSchemaLocation="http://sumo.dlr.de/xsd/sumoConfiguration.xsd">

    <input>
        <net-file value="maps/CTU_map/osm.net.xml.gz"/>
        <route-files value="maps/CTU_map/osm.bicycle.trips.xml,maps/CTU_map/osm.motorcycle.trips.xml,maps/CTU_map/osm.passenger.trips.xml,maps/CTU_map/osm.pedestrian.rou.xml"/>
        <additional-files value="maps/CTU_map/osm.poly.xml.gz,maps/CTU_map/output.add.xml"/>
    </input>

    <output>
        <tripinfo-output value="maps/CTU_map/tripinfos.xml"/>
        <statistic-output value="maps/CTU_map/stats.xml"/>
    </output>

    <processing>
        <ignore-route-errors value="true"/>
        <scale value="7.0"/>
        <tls.actuated.jam-threshold value="30"/>
    </processing>

    <routing>
        <device.rerouting.adaptation-steps value="18"/>
        <device.rerouting.adaptation-interval value="10"/>
    </routing>

    <report>
        <verbose value="true"/>
        <no-warnings value="true"/>
        <no-step-log value="true"/>
    </report>

    <emissions>
        <device.emissions.probability value="1.0"/>
    </emissions>

    <traci_server>
        <remote-port value="46331"/>
    </traci_server>

    <gui_only>
        <gui-settings-file value="maps/CTU_map/osm.view.xml"/>
        <quit-on-end value="true"/>
        <start value="true"/>
        <delay value="20"/>
    </gui_only>

</sumoConfiguration>
-->

<tripinfos xmlns:xsi="http://www.w3.org/2001/XMLSchema-instance" xsi:noNamespaceSchemaLocation="http://sumo.dlr.de/xsd/tripinfo_file.xsd">
    <personinfo id="ped1.2" depart="9.00" type="ped_pedestrian" speedFactor="1.17" duration="34.00" waitingTime="1.00" timeLoss="4.19" traveltime="34.00">
        <walk depart="9.00" departPos="0.00" arrival="43.00" arrivalPos="24.14" duration="34.00" routeLength="48.40" timeLoss="4.19" maxSpeed="1.62" waitingTime="1.00"/>
    </personinfo>
    <personinfo id="ped1.4" depart="9.00" type="ped_pedestrian" speedFactor="1.10" duration="38.00" waitingTime="1.00" timeLoss="6.20" traveltime="38.00">
        <walk depart="9.00" departPos="0.00" arrival="47.00" arrivalPos="24.14" duration="38.00" routeLength="48.40" timeLoss="6.20" maxSpeed="1.52" waitingTime="1.00"/>
    </personinfo>
    <tripinfo id="motorcycle15" depart="18.00" departLane="-136482748_0" departPos="2.30" departSpeed="12.99" departDelay="0.27" arrival="48.00" arrivalLane="166258974#2_0" arrivalPos="55.79" arrivalSpeed="10.66" duration="30.00" routeLength="298.41" waitingTime="0.00" waitingCount="0" stopTime="0.00" timeLoss="5.32" rerouteNo="1" devices="tripinfo_motorcycle15 routing_motorcycle15 emissions_motorcycle15" vType="motorcycle_motorcycle" speedFactor="0.94" vaporized="">
        <emissions CO_abs="905.26" CO2_abs="35584.47" HC_abs="418.81" PMx_abs="8.35" NOx_abs="48.51" fuel_abs="11538.41" electricity_abs="0.00"/>
    </tripinfo>
    <personinfo id="ped1.3" depart="9.00" type="ped_pedestrian" speedFactor="1.02" duration="40.00" waitingTime="1.00" timeLoss="5.73" traveltime="40.00">
        <walk depart="9.00" departPos="0.00" arrival="49.00" arrivalPos="24.14" duration="40.00" routeLength="48.40" timeLoss="5.73" maxSpeed="1.41" waitingTime="1.00"/>
    </personinfo>
    <tripinfo id="motorcycle15.1" depart="19.00" departLane="-136482748_0" departPos="2.30" departSpeed="6.01" departDelay="1.27" arrival="49.00" arrivalLane="166258974#2_0" arrivalPos="55.79" arrivalSpeed="12.88" duration="30.00" routeLength="298.41" waitingTime="0.00" waitingCount="0" stopTime="0.00" timeLoss="7.92" rerouteNo="1" devices="tripinfo_motorcycle15.1 routing_motorcycle15.1 emissions_motorcycle15.1" vType="motorcycle_motorcycle" speedFactor="1.01" vaporized="">
        <emissions CO_abs="1611.87" CO2_abs="52179.62" HC_abs="572.72" PMx_abs="10.74" NOx_abs="83.09" fuel_abs="16919.21" electricity_abs="0.00"/>
    </tripinfo>
    <personinfo id="ped1.6" depart="9.00" type="ped_pedestrian" speedFactor="1.00" duration="41.00" waitingTime="1.00" timeLoss="6.01" traveltime="41.00">
        <walk depart="9.00" departPos="0.00" arrival="50.00" arrivalPos="24.14" duration="41.00" routeLength="48.40" timeLoss="6.01" maxSpeed="1.38" waitingTime="1.00"/>
    </personinfo>
    <personinfo id="ped1.5" depart="9.00" type="ped_pedestrian" speedFactor="1.00" duration="42.00" waitingTime="1.00" timeLoss="7.26" traveltime="42.00">
        <walk depart="9.00" departPos="0.00" arrival="51.00" arrivalPos="24.14" duration="42.00" routeLength="48.40" timeLoss="7.26" maxSpeed="1.39" waitingTime="1.00"/>
    </personinfo>
    <tripinfo id="motorcycle15.2" depart="21.00" departLane="-136482748_0" departPos="2.30" departSpeed="8.90" departDelay="3.27" arrival="52.00" arrivalLane="166258974#2_0" arrivalPos="55.79" arrivalSpeed="12.50" duration="31.00" routeLength="298.41" waitingTime="0.00" waitingCount="0" stopTime="0.00" timeLoss="6.15" rerouteNo="1" devices="tripinfo_motorcycle15.2 routing_motorcycle15.2 emissions_motorcycle15.2" vType="motorcycle_motorcycle" speedFactor="0.91" vaporized="">
        <emissions CO_abs="1207.61" CO2_abs="47394.53" HC_abs="552.76" PMx_abs="11.01" NOx_abs="65.20" fuel_abs="15367.86" electricity_abs="0.00"/>
    </tripinfo>
    <personinfo id="ped1" depart="9.00" type="ped_pedestrian" speedFactor="0.85" duration="45.00" waitingTime="0.00" timeLoss="4.02" traveltime="45.00">
        <walk depart="9.00" departPos="0.00" arrival="54.00" arrivalPos="24.14" duration="45.00" routeLength="48.40" timeLoss="4.02" maxSpeed="1.18" waitingTime="0.00"/>
    </personinfo>
    <tripinfo id="motorcycle15.3" depart="22.00" departLane="-136482748_0" departPos="2.30" departSpeed="2.47" departDelay="4.27" arrival="54.00" arrivalLane="166258974#2_0" arrivalPos="55.79" arrivalSpeed="10.44" duration="32.00" routeLength="298.41" waitingTime="0.00" waitingCount="0" stopTime="0.00" timeLoss="7.74" rerouteNo="1" devices="tripinfo_motorcycle15.3 routing_motorcycle15.3 emissions_motorcycle15.3" vType="motorcycle_motorcycle" speedFactor="0.93" vaporized="">
        <emissions CO_abs="1242.45" CO2_abs="51278.00" HC_abs="573.76" PMx_abs="11.45" NOx_abs="70.08" fuel_abs="16627.02" electricity_abs="0.00"/>
    </tripinfo>
    <tripinfo id="motorcycle24" depart="29.00" departLane="-566514591#4_0" departPos="2.30" departSpeed="10.62" departDelay="0.63" arrival="55.00" arrivalLane="566514591#4_0" arrivalPos="84.05" arrivalSpeed="8.06" duration="26.00" routeLength="198.65" waitingTime="0.00" waitingCount="0" stopTime="0.00" timeLoss="5.38" rerouteNo="1" devices="tripinfo_motorcycle24 routing_motorcycle24 emissions_motorcycle24" vType="motorcycle_motorcycle" speedFactor="0.76" vaporized="">
        <emissions CO_abs="448.86" CO2_abs="28596.57" HC_abs="336.57" PMx_abs="6.97" NOx_abs="31.85" fuel_abs="9272.60" electricity_abs="0.00"/>
    </tripinfo>
    <personinfo id="ped1.1" depart="9.00" type="ped_pedestrian" speedFactor="0.85" duration="47.00" waitingTime="1.00" timeLoss="6.24" traveltime="47.00">
        <walk depart="9.00" departPos="0.00" arrival="56.00" arrivalPos="24.14" duration="47.00" routeLength="48.40" timeLoss="6.24" maxSpeed="1.19" waitingTime="1.00"/>
    </personinfo>
    <tripinfo id="motorcycle24.1" depart="30.00" departLane="-566514591#4_0" departPos="2.30" departSpeed="4.21" departDelay="1.63" arrival="56.00" arrivalLane="566514591#4_0" arrivalPos="84.05" arrivalSpeed="12.82" duration="26.00" routeLength="198.65" waitingTime="0.00" waitingCount="0" stopTime="0.00" timeLoss="11.42" rerouteNo="1" devices="tripinfo_motorcycle24.1 routing_motorcycle24.1 emissions_motorcycle24.1" vType="motorcycle_motorcycle" speedFactor="1.06" vaporized="">
        <emissions CO_abs="1208.19" CO2_abs="51965.72" HC_abs="540.32" PMx_abs="10.11" NOx_abs="73.20" fuel_abs="16849.79" electricity_abs="0.00"/>
    </tripinfo>
    <tripinfo id="motorcycle1" depart="2.00" departLane="1215566873#0_0" departPos="2.30" departSpeed="14.03" departDelay="0.82" arrival="58.00" arrivalLane="877423628#2_0" arrivalPos="12.95" arrivalSpeed="12.63" duration="56.00" routeLength="634.10" waitingTime="0.00" waitingCount="0" stopTime="0.00" timeLoss="8.28" rerouteNo="1" devices="tripinfo_motorcycle1 routing_motorcycle1 emissions_motorcycle1" vType="motorcycle_motorcycle" speedFactor="1.01" vaporized="">
        <emissions CO_abs="2690.28" CO2_abs="83707.53" HC_abs="983.20" PMx_abs="19.27" NOx_abs="124.80" fuel_abs="27142.45" electricity_abs="0.00"/>
    </tripinfo>
    <tripinfo id="motorcycle15.4" depart="24.00" departLane="-136482748_0" departPos="2.30" departSpeed="4.45" departDelay="6.27" arrival="59.00" arrivalLane="166258974#2_0" arrivalPos="55.79" arrivalSpeed="10.44" duration="35.00" routeLength="298.41" waitingTime="0.00" waitingCount="0" stopTime="0.00" timeLoss="6.51" rerouteNo="1" devices="tripinfo_motorcycle15.4 routing_motorcycle15.4 emissions_motorcycle15.4" vType="motorcycle_motorcycle" speedFactor="0.81" vaporized="">
        <emissions CO_abs="1023.43" CO2_abs="54019.25" HC_abs="625.57" PMx_abs="12.87" NOx_abs="65.02" fuel_abs="17516.01" electricity_abs="0.00"/>
    </tripinfo>
    <tripinfo id="motorcycle15.5" depart="26.00" departLane="-136482748_0" departPos="2.30" departSpeed="6.52" departDelay="8.27" arrival="60.00" arrivalLane="166258974#2_0" arrivalPos="55.79" arrivalSpeed="13.52" duration="34.00" routeLength="298.41" waitingTime="0.00" waitingCount="0" stopTime="0.00" timeLoss="13.46" rerouteNo="1" devices="tripinfo_motorcycle15.5 routing_motorcycle15.5 emissions_motorcycle15.5" vType="motorcycle_motorcycle" speedFactor="1.10" vaporized="">
        <emissions CO_abs="1549.40" CO2_abs="64387.94" HC_abs="706.75" PMx_abs="13.90" NOx_abs="89.79" fuel_abs="20877.87" electricity_abs="0.00"/>
    </tripinfo>
    <tripinfo id="motorcycle24.2" depart="32.00" departLane="-566514591#4_0" departPos="2.30" departSpeed="4.47" departDelay="3.63" arrival="60.00" arrivalLane="566514591#4_0" arrivalPos="84.05" arrivalSpeed="12.23" duration="28.00" routeLength="198.65" waitingTime="0.00" waitingCount="0" stopTime="0.00" timeLoss="10.57" rerouteNo="1" devices="tripinfo_motorcycle24.2 routing_motorcycle24.2 emissions_motorcycle24.2" vType="motorcycle_motorcycle" speedFactor="0.88" vaporized="">
        <emissions CO_abs="877.81" CO2_abs="50372.57" HC_abs="537.15" PMx_abs="11.06" NOx_abs="59.59" fuel_abs="16333.42" electricity_abs="0.00"/>
    </tripinfo>
    <tripinfo id="motorcycle31" depart="37.00" departLane="-1425299785_0" departPos="2.30" departSpeed="13.79" departDelay="0.36" arrival="61.00" arrivalLane="832010968#1_0" arrivalPos="44.16" arrivalSpeed="13.10" duration="24.00" routeLength="104.75" waitingTime="11.00" waitingCount="1" stopTime="0.00" timeLoss="15.53" rerouteNo="0" devices="tripinfo_motorcycle31 routing_motorcycle31 emissions_motorcycle31" vType="motorcycle_motorcycle" speedFactor="0.99" vaporized="">
        <emissions CO_abs="617.46" CO2_abs="39556.38" HC_abs="533.72" PMx_abs="10.72" NOx_abs="39.73" fuel_abs="12826.48" electricity_abs="0.00"/>
    </tripinfo>
    <tripinfo id="motorcycle15.6" depart="27.00" departLane="-136482748_0" departPos="2.30" departSpeed="1.07" departDelay="9.27" arrival="62.00" arrivalLane="166258974#2_0" arrivalPos="55.79" arrivalSpeed="14.28" duration="35.00" routeLength="298.41" waitingTime="0.00" waitingCount="0" stopTime="0.00" timeLoss="13.64" rerouteNo="1" devices="tripinfo_motorcycle15.6 routing_motorcycle15.6 emissions_motorcycle15.6" vType="motorcycle_motorcycle" speedFactor="1.08" vaporized="">
        <emissions CO_abs="1572.42" CO2_abs="61978.15" HC_abs="664.75" PMx_abs="12.90" NOx_abs="88.87" fuel_abs="20096.42" electricity_abs="0.00"/>
    </tripinfo>
    <tripinfo id="motorcycle24.3" depart="34.00" departLane="-566514591#4_0" departPos="2.30" departSpeed="3.38" departDelay="5.63" arrival="62.00" arrivalLane="566514591#4_0" arrivalPos="84.05" arrivalSpeed="11.47" duration="28.00" routeLength="198.65" waitingTime="1.00" waitingCount="1" stopTime="0.00" timeLoss="13.23" rerouteNo="1" devices="tripinfo_motorcycle24.3 routing_motorcycle24.3 emissions_motorcycle24.3" vType="motorcycle_motorcycle" speedFactor="1.04" vaporized="">
        <emissions CO_abs="1073.93" CO2_abs="53036.73" HC_abs="529.28" PMx_abs="10.33" NOx_abs="68.72" fuel_abs="17197.07" electricity_abs="0.00"/>
    </tripinfo>
    <tripinfo id="motorcycle1.1" depart="3.00" departLane="1215566873#0_0" departPos="2.30" departSpeed="11.57" departDelay="1.82" arrival="63.00" arrivalLane="877423628#2_0" arrivalPos="12.95" arrivalSpeed="11.12" duration="60.00" routeLength="634.10" waitingTime="0.00" waitingCount="0" stopTime="0.00" timeLoss="10.98" rerouteNo="1" devices="tripinfo_motorcycle1.1 routing_motorcycle1.1 emissions_motorcycle1.1" vType="motorcycle_motorcycle" speedFactor="0.97" vaporized="">
        <emissions CO_abs="2776.29" CO2_abs="91582.94" HC_abs="1056.19" PMx_abs="20.50" NOx_abs="137.01" fuel_abs="29695.98" electricity_abs="0.00"/>
    </tripinfo>
    <tripinfo id="motorcycle24.4" depart="36.00" departLane="-566514591#4_0" departPos="2.30" departSpeed="4.48" departDelay="7.63" arrival="64.00" arrivalLane="566514591#4_0" arrivalPos="84.05" arrivalSpeed="16.04" duration="28.00" routeLength="198.65" waitingTime="0.00" waitingCount="0" stopTime="0.00" timeLoss="15.00" rerouteNo="1" devices="tripinfo_motorcycle24.4 routing_motorcycle24.4 emissions_motorcycle24.4" vType="motorcycle_motorcycle" speedFactor="1.17" vaporized="">
        <emissions CO_abs="1644.89" CO2_abs="66779.82" HC_abs="694.04" PMx_abs="13.48" NOx_abs="90.75" fuel_abs="21653.31" electricity_abs="0.00"/>
    </tripinfo>
    <tripinfo id="motorcycle31.1" depart="38.00" departLane="-1425299785_0" departPos="2.30" departSpeed="10.31" departDelay="1.36" arrival="64.00" arrivalLane="832010968#1_0" arrivalPos="44.16" arrivalSpeed="13.36" duration="26.00" routeLength="104.75" waitingTime="11.00" waitingCount="1" stopTime="0.00" timeLoss="16.86" rerouteNo="0" devices="tripinfo_motorcycle31.1 routing_motorcycle31.1 emissions_motorcycle31.1" vType="motorcycle_motorcycle" speedFactor="0.98" vaporized="">
        <emissions CO_abs="603.02" CO2_abs="40433.84" HC_abs="518.19" PMx_abs="10.50" NOx_abs="40.41" fuel_abs="13110.98" electricity_abs="0.00"/>
    </tripinfo>
    <tripinfo id="motorcycle31.2" depart="39.00" departLane="-1425299785_0" departPos="2.30" departSpeed="4.63" departDelay="2.36" arrival="65.00" arrivalLane="832010968#1_0" arrivalPos="44.16" arrivalSpeed="12.32" duration="26.00" routeLength="104.75" waitingTime="11.00" waitingCount="1" stopTime="0.00" timeLoss="18.39" rerouteNo="0" devices="tripinfo_motorcycle31.2 routing_motorcycle31.2 emissions_motorcycle31.2" vType="motorcycle_motorcycle" speedFactor="1.08" vaporized="">
        <emissions CO_abs="722.81" CO2_abs="48810.60" HC_abs="618.75" PMx_abs="12.38" NOx_abs="50.36" fuel_abs="15827.13" electricity_abs="0.00"/>
    </tripinfo>
    <tripinfo id="motorcycle31.3" depart="41.00" departLane="-1425299785_0" departPos="2.30" departSpeed="8.45" departDelay="4.36" arrival="66.00" arrivalLane="832010968#1_0" arrivalPos="44.16" arrivalSpeed="17.14" duration="25.00" routeLength="104.75" waitingTime="10.00" waitingCount="1" stopTime="0.00" timeLoss="18.65" rerouteNo="0" devices="tripinfo_motorcycle31.3 routing_motorcycle31.3 emissions_motorcycle31.3" vType="motorcycle_motorcycle" speedFactor="1.24" vaporized="">
        <emissions CO_abs="911.25" CO2_abs="45654.23" HC_abs="569.98" PMx_abs="11.37" NOx_abs="51.45" fuel_abs="14803.65" electricity_abs="0.00"/>
    </tripinfo>
    <tripinfo id="motorcycle31.4" depart="42.00" departLane="-1425299785_0" departPos="2.30" departSpeed="2.97" departDelay="5.36" arrival="70.00" arrivalLane="832010968#1_0" arrivalPos="44.16" arrivalSpeed="11.88" duration="28.00" routeLength="104.75" waitingTime="8.00" waitingCount="1" stopTime="0.00" timeLoss="19.75" rerouteNo="0" devices="tripinfo_motorcycle31.4 routing_motorcycle31.4 emissions_motorcycle31.4" vType="motorcycle_motorcycle" speedFactor="1.06" vaporized="">
        <emissions CO_abs="547.46" CO2_abs="46588.61" HC_abs="579.70" PMx_abs="11.91" NOx_abs="43.89" fuel_abs="15106.69" electricity_abs="0.00"/>
    </tripinfo>
    <tripinfo id="motorcycle1.2" depart="4.00" departLane="1215566873#0_0" departPos="2.30" departSpeed="7.58" departDelay="2.82" arrival="71.00" arrivalLane="877423628#2_0" arrivalPos="12.95" arrivalSpeed="11.33" duration="67.00" routeLength="634.10" waitingTime="0.00" waitingCount="0" stopTime="0.00" timeLoss="13.14" rerouteNo="1" devices="tripinfo_motorcycle1.2 routing_motorcycle1.2 emissions_motorcycle1.2" vType="motorcycle_motorcycle" speedFactor="0.89" vaporized="">
        <emissions CO_abs="2367.06" CO2_abs="100874.88" HC_abs="1173.08" PMx_abs="23.41" NOx_abs="134.50" fuel_abs="32709.05" electricity_abs="0.00"/>
    </tripinfo>
    <tripinfo id="motorcycle24.5" depart="38.00" departLane="-566514591#4_0" departPos="2.30" departSpeed="6.51" departDelay="9.63" arrival="71.00" arrivalLane="566514591#4_0" arrivalPos="84.05" arrivalSpeed="11.36" duration="33.00" routeLength="198.65" waitingTime="1.00" waitingCount="1" stopTime="0.00" timeLoss="15.61" rerouteNo="1" devices="tripinfo_motorcycle24.5 routing_motorcycle24.5 emissions_motorcycle24.5" vType="motorcycle_motorcycle" speedFactor="0.93" vaporized="">
        <emissions CO_abs="974.68" CO2_abs="54603.86" HC_abs="625.01" PMx_abs="12.07" NOx_abs="65.72" fuel_abs="17705.39" electricity_abs="0.00"/>
    </tripinfo>
    <tripinfo id="motorcycle31.5" depart="44.00" departLane="-1425299785_0" departPos="2.30" departSpeed="4.31" departDelay="7.36" arrival="71.00" arrivalLane="832010968#1_0" arrivalPos="44.16" arrivalSpeed="14.41" duration="27.00" routeLength="104.75" waitingTime="7.00" waitingCount="1" stopTime="0.00" timeLoss="19.28" rerouteNo="0" devices="tripinfo_motorcycle31.5 routing_motorcycle31.5 emissions_motorcycle31.5" vType="motorcycle_motorcycle" speedFactor="1.09" vaporized="">
        <emissions CO_abs="769.12" CO2_abs="47821.10" HC_abs="562.39" PMx_abs="11.32" NOx_abs="52.42" fuel_abs="15506.20" electricity_abs="0.00"/>
    </tripinfo>
    <tripinfo id="bike4" depart="25.00" departLane="954534278_0" departPos="1.70" departSpeed="5.68" departDelay="0.18" arrival="74.00" arrivalLane="-954524072_0" arrivalPos="41.87" arrivalSpeed="5.43" duration="49.00" routeLength="260.86" waitingTime="0.00" waitingCount="0" stopTime="0.00" timeLoss="2.98" rerouteNo="1" devices="tripinfo_bike4 routing_bike4 emissions_bike4" vType="bike_bicycle" speedFactor="1.02" vaporized="">
        <emissions CO_abs="0.00" CO2_abs="0.00" HC_abs="0.00" PMx_abs="0.00" NOx_abs="0.00" fuel_abs="0.00" electricity_abs="0.00"/>
    </tripinfo>
    <tripinfo id="motorcycle24.6" depart="39.00" departLane="-566514591#4_0" departPos="2.30" departSpeed="0.86" departDelay="10.63" arrival="75.00" arrivalLane="566514591#4_0" arrivalPos="84.05" arrivalSpeed="9.62" duration="36.00" routeLength="198.65" waitingTime="0.00" waitingCount="0" stopTime="0.00" timeLoss="18.68" rerouteNo="1" devices="tripinfo_motorcycle24.6 routing_motorcycle24.6 emissions_motorcycle24.6" vType="motorcycle_motorcycle" speedFactor="0.89" vaporized="">
        <emissions CO_abs="866.66" CO2_abs="59858.53" HC_abs="582.20" PMx_abs="12.47" NOx_abs="64.11" fuel_abs="19409.18" electricity_abs="0.00"/>
    </tripinfo>
    <tripinfo id="motorcycle31.6" depart="46.00" departLane="-1425299785_0" departPos="2.30" departSpeed="6.35" departDelay="9.36" arrival="75.00" arrivalLane="832010968#1_0" arrivalPos="44.16" arrivalSpeed="12.98" duration="29.00" routeLength="104.75" waitingTime="7.00" waitingCount="1" stopTime="0.00" timeLoss="19.38" rerouteNo="0" devices="tripinfo_motorcycle31.6 routing_motorcycle31.6 emissions_motorcycle31.6" vType="motorcycle_motorcycle" speedFactor="0.94" vaporized="">
        <emissions CO_abs="577.50" CO2_abs="46044.59" HC_abs="595.37" PMx_abs="12.18" NOx_abs="43.38" fuel_abs="14930.35" electricity_abs="0.00"/>
    </tripinfo>
    <tripinfo id="motorcycle1.3" depart="5.00" departLane="1215566873#0_0" departPos="2.30" departSpeed="1.05" departDelay="3.82" arrival="77.00" arrivalLane="877423628#2_0" arrivalPos="12.95" arrivalSpeed="10.38" duration="72.00" routeLength="634.10" waitingTime="0.00" waitingCount="0" stopTime="0.00" timeLoss="14.63" rerouteNo="1" devices="tripinfo_motorcycle1.3 routing_motorcycle1.3 emissions_motorcycle1.3" vType="motorcycle_motorcycle" speedFactor="0.83" vaporized="">
        <emissions CO_abs="1965.17" CO2_abs="100722.53" HC_abs="1187.29" PMx_abs="24.20" NOx_abs="122.56" fuel_abs="32659.78" electricity_abs="0.00"/>
    </tripinfo>
    <tripinfo id="bike4.1" depart="26.00" departLane="954534278_0" departPos="1.70" departSpeed="4.12" departDelay="1.18" arrival="78.00" arrivalLane="-954524072_0" arrivalPos="41.87" arrivalSpeed="5.22" duration="52.00" routeLength="260.86" waitingTime="0.00" waitingCount="0" stopTime="0.00" timeLoss="3.47" rerouteNo="1" devices="tripinfo_bike4.1 routing_bike4.1 emissions_bike4.1" vType="bike_bicycle" speedFactor="0.97" vaporized="">
        <emissions CO_abs="0.00" CO2_abs="0.00" HC_abs="0.00" PMx_abs="0.00" NOx_abs="0.00" fuel_abs="0.00" electricity_abs="0.00"/>
    </tripinfo>
    <tripinfo id="motorcycle1.4" depart="7.00" departLane="1215566873#0_0" departPos="2.30" departSpeed="0.84" departDelay="5.82" arrival="79.00" arrivalLane="877423628#2_0" arrivalPos="12.95" arrivalSpeed="11.76" duration="72.00" routeLength="634.10" waitingTime="0.00" waitingCount="0" stopTime="0.00" timeLoss="16.86" rerouteNo="1" devices="tripinfo_motorcycle1.4 routing_motorcycle1.4 emissions_motorcycle1.4" vType="motorcycle_motorcycle" speedFactor="0.87" vaporized="">
        <emissions CO_abs="2209.26" CO2_abs="103309.24" HC_abs="1175.94" PMx_abs="23.74" NOx_abs="132.58" fuel_abs="33498.38" electricity_abs="0.00"/>
    </tripinfo>
    <tripinfo id="motorcycle1.5" depart="9.00" departLane="1215566873#0_0" departPos="2.30" departSpeed="1.34" departDelay="7.82" arrival="81.00" arrivalLane="877423628#2_0" arrivalPos="12.95" arrivalSpeed="10.32" duration="72.00" routeLength="634.10" waitingTime="0.00" waitingCount="0" stopTime="0.00" timeLoss="19.80" rerouteNo="1" devices="tripinfo_motorcycle1.5 routing_motorcycle1.5 emissions_motorcycle1.5" vType="motorcycle_motorcycle" speedFactor="0.92" vaporized="">
        <emissions CO_abs="2645.19" CO2_abs="118575.72" HC_abs="1339.04" PMx_abs="26.75" NOx_abs="156.68" fuel_abs="38448.51" electricity_abs="0.00"/>
    </tripinfo>
    <tripinfo id="motorcycle1.6" depart="11.00" departLane="1215566873#0_0" departPos="2.30" departSpeed="2.77" departDelay="9.82" arrival="82.00" arrivalLane="877423628#2_0" arrivalPos="12.95" arrivalSpeed="12.61" duration="71.00" routeLength="634.10" waitingTime="0.00" waitingCount="0" stopTime="0.00" timeLoss="20.66" rerouteNo="1" devices="tripinfo_motorcycle1.6 routing_motorcycle1.6 emissions_motorcycle1.6" vType="motorcycle_motorcycle" speedFactor="0.95" vaporized="">
        <emissions CO_abs="2752.93" CO2_abs="117174.82" HC_abs="1291.92" PMx_abs="25.51" NOx_abs="160.87" fuel_abs="37994.12" electricity_abs="0.00"/>
    </tripinfo>
    <tripinfo id="bike4.2" depart="27.00" departLane="954534278_0" departPos="1.70" departSpeed="2.45" departDelay="2.18" arrival="82.00" arrivalLane="-954524072_0" arrivalPos="41.87" arrivalSpeed="4.97" duration="55.00" routeLength="260.86" waitingTime="0.00" waitingCount="0" stopTime="0.00" timeLoss="4.52" rerouteNo="1" devices="tripinfo_bike4.2 routing_bike4.2 emissions_bike4.2" vType="bike_bicycle" speedFactor="0.94" vaporized="">
        <emissions CO_abs="0.00" CO2_abs="0.00" HC_abs="0.00" PMx_abs="0.00" NOx_abs="0.00" fuel_abs="0.00" electricity_abs="0.00"/>
    </tripinfo>
    <tripinfo id="bike4.3" depart="28.00" departLane="954534278_0" departPos="1.70" departSpeed="0.09" departDelay="3.18" arrival="83.00" arrivalLane="-954524072_0" arrivalPos="41.87" arrivalSpeed="5.86" duration="55.00" routeLength="260.86" waitingTime="1.00" waitingCount="1" stopTime="0.00" timeLoss="10.41" rerouteNo="1" devices="tripinfo_bike4.3 routing_bike4.3 emissions_bike4.3" vType="bike_bicycle" speedFactor="1.06" vaporized="">
        <emissions CO_abs="0.00" CO2_abs="0.00" HC_abs="0.00" PMx_abs="0.00" NOx_abs="0.00" fuel_abs="0.00" electricity_abs="0.00"/>
    </tripinfo>
    <tripinfo id="motorcycle0" depart="0.00" departLane="-1456657573_0" departPos="2.30" departSpeed="13.77" departDelay="0.00" arrival="84.00" arrivalLane="1425299786_0" arrivalPos="52.89" arrivalSpeed="11.43" duration="84.00" routeLength="867.98" waitingTime="0.00" waitingCount="0" stopTime="0.00" timeLoss="16.31" rerouteNo="1" devices="tripinfo_motorcycle0 routing_motorcycle0 emissions_motorcycle0" vType="motorcycle_motorcycle" speedFactor="0.99" vaporized="">
        <emissions CO_abs="4099.76" CO2_abs="132093.74" HC_abs="1459.66" PMx_abs="27.53" NOx_abs="208.14" fuel_abs="42831.38" electricity_abs="0.00"/>
    </tripinfo>
    <tripinfo id="motorcycle6" depart="8.00" departLane="-935745880#3_0" departPos="2.30" departSpeed="13.77" departDelay="0.91" arrival="84.00" arrivalLane="-935745886_0" arrivalPos="197.65" arrivalSpeed="11.06" duration="76.00" routeLength="878.74" waitingTime="0.00" waitingCount="0" stopTime="0.00" timeLoss="10.60" rerouteNo="1" devices="tripinfo_motorcycle6 routing_motorcycle6 emissions_motorcycle6" vType="motorcycle_motorcycle" speedFactor="0.99" vaporized="">
        <emissions CO_abs="3369.70" CO2_abs="105797.04" HC_abs="1272.59" PMx_abs="25.12" NOx_abs="156.47" fuel_abs="34305.18" electricity_abs="0.00"/>
    </tripinfo>
    <tripinfo id="motorcycle6.1" depart="9.00" departLane="-935745880#3_0" departPos="2.30" departSpeed="10.87" departDelay="1.91" arrival="85.00" arrivalLane="-935745886_0" arrivalPos="197.65" arrivalSpeed="13.24" duration="76.00" routeLength="878.74" waitingTime="0.00" waitingCount="0" stopTime="0.00" timeLoss="14.53" rerouteNo="1" devices="tripinfo_motorcycle6.1 routing_motorcycle6.1 emissions_motorcycle6.1" vType="motorcycle_motorcycle" speedFactor="1.05" vaporized="">
        <emissions CO_abs="4294.89" CO2_abs="122846.03" HC_abs="1413.64" PMx_abs="26.79" NOx_abs="198.35" fuel_abs="39832.99" electricity_abs="0.00"/>
    </tripinfo>
    <tripinfo id="bike4.4" depart="31.00" departLane="954534278_0" departPos="1.70" departSpeed="1.38" departDelay="6.18" arrival="86.00" arrivalLane="-954524072_0" arrivalPos="41.87" arrivalSpeed="4.83" duration="55.00" routeLength="260.86" waitingTime="0.00" waitingCount="0" stopTime="0.00" timeLoss="5.15" rerouteNo="1" devices="tripinfo_bike4.4 routing_bike4.4 emissions_bike4.4" vType="bike_bicycle" speedFactor="0.96" vaporized="">
        <emissions CO_abs="0.00" CO2_abs="0.00" HC_abs="0.00" PMx_abs="0.00" NOx_abs="0.00" fuel_abs="0.00" electricity_abs="0.00"/>
    </tripinfo>
    <tripinfo id="bike4.5" depart="33.00" departLane="954534278_0" departPos="1.70" departSpeed="1.52" departDelay="8.18" arrival="88.00" arrivalLane="-954524072_0" arrivalPos="41.87" arrivalSpeed="4.95" duration="55.00" routeLength="260.86" waitingTime="0.00" waitingCount="0" stopTime="0.00" timeLoss="6.36" rerouteNo="1" devices="tripinfo_bike4.5 routing_bike4.5 emissions_bike4.5" vType="bike_bicycle" speedFactor="0.98" vaporized="">
        <emissions CO_abs="0.00" CO2_abs="0.00" HC_abs="0.00" PMx_abs="0.00" NOx_abs="0.00" fuel_abs="0.00" electricity_abs="0.00"/>
    </tripinfo>
    <tripinfo id="bike4.6" depart="35.00" departLane="954534278_0" departPos="1.70" departSpeed="1.64" departDelay="10.18" arrival="89.00" arrivalLane="-954524072_0" arrivalPos="41.87" arrivalSpeed="5.65" duration="54.00" routeLength="260.86" waitingTime="0.00" waitingCount="0" stopTime="0.00" timeLoss="7.96" rerouteNo="1" devices="tripinfo_bike4.6 routing_bike4.6 emissions_bike4.6" vType="bike_bicycle" speedFactor="1.03" vaporized="">
        <emissions CO_abs="0.00" CO2_abs="0.00" HC_abs="0.00" PMx_abs="0.00" NOx_abs="0.00" fuel_abs="0.00" electricity_abs="0.00"/>
    </tripinfo>
    <tripinfo id="motorcycle6.2" depart="10.00" departLane="-935745880#3_0" departPos="2.30" departSpeed="3.90" departDelay="2.91" arrival="93.00" arrivalLane="-935745886_0" arrivalPos="197.65" arrivalSpeed="11.68" duration="83.00" routeLength="878.74" waitingTime="0.00" waitingCount="0" stopTime="0.00" timeLoss="11.74" rerouteNo="1" devices="tripinfo_motorcycle6.2 routing_motorcycle6.2 emissions_motorcycle6.2" vType="motorcycle_motorcycle" speedFactor="0.90" vaporized="">
        <emissions CO_abs="3253.76" CO2_abs="119959.55" HC_abs="1407.46" PMx_abs="27.82" NOx_abs="170.39" fuel_abs="38897.33" electricity_abs="0.00"/>
    </tripinfo>
    <tripinfo id="motorcycle0.1" depart="1.00" departLane="-1456657573_0" departPos="2.30" departSpeed="10.60" departDelay="1.00" arrival="94.00" arrivalLane="1425299786_0" arrivalPos="52.89" arrivalSpeed="12.32" duration="93.00" routeLength="867.98" waitingTime="0.00" waitingCount="0" stopTime="0.00" timeLoss="20.10" rerouteNo="1" devices="tripinfo_motorcycle0.1 routing_motorcycle0.1 emissions_motorcycle0.1" vType="motorcycle_motorcycle" speedFactor="0.93" vaporized="">
        <emissions CO_abs="3504.48" CO2_abs="147059.04" HC_abs="1678.05" PMx_abs="33.25" NOx_abs="199.82" fuel_abs="47684.30" electricity_abs="0.00"/>
    </tripinfo>
    <tripinfo id="motorcycle6.3" depart="12.00" departLane="-935745880#3_0" departPos="2.30" departSpeed="7.72" departDelay="4.91" arrival="95.00" arrivalLane="-935745886_0" arrivalPos="197.65" arrivalSpeed="13.26" duration="83.00" routeLength="878.74" waitingTime="0.00" waitingCount="0" stopTime="0.00" timeLoss="23.54" rerouteNo="1" devices="tripinfo_motorcycle6.3 routing_motorcycle6.3 emissions_motorcycle6.3" vType="motorcycle_motorcycle" speedFactor="1.09" vaporized="">