<?xml version="1.0" encoding="UTF-8"?>

<!-- generated on 2026-01-21T22:33:53.194178+07:00 by Eclipse SUMO GUI v1_25_0+0904-59bbc76848e
<sumoConfiguration xmlns:xsi="http://www.w3.org/2001/XMLSchema-instance" xsi:noNamespaceSchemaLocation="http://sumo.dlr.de/xsd/sumoConfiguration.xsd">

    <input>
        <net-file value="/home/hoeman/Sumo/2026-01-21-22-33-28/osm.net.xml.gz"/>
        <route-files value="/home/hoeman/Sumo/2026-01-21-22-33-28/osm.passenger.trips.xml"/>
        <additional-files value="/home/hoeman/Sumo/2026-01-21-22-33-28/osm.poly.xml.gz,/home/hoeman/Sumo/2026-01-21-22-33-28/output.add.xml"/>
    </input>

    <output>
        <tripinfo-output value="/home/hoeman/Sumo/2026-01-21-22-33-28/tripinfos.xml"/>
        <statistic-output value="/home/hoeman/Sumo/2026-01-21-22-33-28/stats.xml"/>
    </output>

    <processing>
        <ignore-route-errors value="true"/>
        <tls.actuated.jam-threshold value="30"/>
    </processing>

    <routing>
        <device.rerouting.adaptation-steps value="18"/>
        <device.rerouting.adaptation-interval value="10"/>
    </routing>

    <report>
        <verbose value="true"/>
        <no-step-log value="true"/>
    </report>

    <gui_only>
        <gui-settings-file value="/home/hoeman/Sumo/2026-01-21-22-33-28/osm.view.xml"/>
    </gui_only>

</sumoConfiguration>
-->

<tripinfos xmlns:xsi="http://www.w3.org/2001/XMLSchema-instance" xsi:noNamespaceSchemaLocation="http://sumo.dlr.de/xsd/tripinfo_file.xsd">
</tripinfos>
